16   
1    

1    
  0.0000000000000000   0.0070710678118655   0.0070710678118655
  -0.0017257700   -0.1010673300   -0.1010673300
   0.0000132900    0.0070837700    0.0070837700
   0.0036891400   -0.0061786400    0.0033915400
  -0.0037117100    0.0033749700   -0.0061815400
   0.0036891400    0.0033915400   -0.0061786400
  -0.0037117100   -0.0061815400    0.0033749700
  -0.0000106400   -0.0003169300   -0.0003169300
   0.0000046000    0.0009128200    0.0009128200
   0.0360882200    0.0438605800    0.0438605800
  -0.0345782700    0.0427585300    0.0427585300
   0.0001315600    0.0079007600    0.0080622200
  -0.0000044300   -0.0018042000   -0.0018151000
   0.0001315600    0.0080622200    0.0079007600
  -0.0000044300   -0.0018151000   -0.0018042000
  -0.0018193600    0.0000063200    0.0000063200
   0.0018188300    0.0000122300    0.0000122300
