 vasp.5.4.1 24Jun15 (build Dec 08 2016 11:43:44) complex                        
  
 executed on           IFC91_ompi date 2019.08.20  10:01:18
 running on   32 total cores
 distrk:  each k-point on   32 cores,    1 groups
 distr:  one band on NCORES_PER_BAND=   1 cores,   32 groups


--------------------------------------------------------------------------------------------------------


 INCAR:
 POTCAR:    PAW_PBE Si 05Jan2001                  

 ----------------------------------------------------------------------------- 
|                                                                             |
|           W    W    AA    RRRRR   N    N  II  N    N   GGGG   !!!           |
|           W    W   A  A   R    R  NN   N  II  NN   N  G    G  !!!           |
|           W    W  A    A  R    R  N N  N  II  N N  N  G       !!!           |
|           W WW W  AAAAAA  RRRRR   N  N N  II  N  N N  G  GGG   !            |
|           WW  WW  A    A  R   R   N   NN  II  N   NN  G    G                |
|           W    W  A    A  R    R  N    N  II  N    N   GGGG   !!!           |
|                                                                             |
|      For optimal performance we recommend to set                            |
|        NCORE= 4 - approx SQRT( number of cores)                             |
|      NCORE specifies how many cores store one orbital (NPAR=cpu/NCORE).     |
|      This setting can  greatly improve the performance of VASP for DFT.     |
|      The default, NPAR=number of cores might be grossly inefficient         |
|      on modern multi-core architectures or massively parallel machines.     |
|      Do your own testing !!!!                                               |
|      Unfortunately you need to use the default for GW and RPA calculations. |
|      (for HF NCORE is supported but not extensively tested yet)             |
|                                                                             |
 ----------------------------------------------------------------------------- 


 ----------------------------------------------------------------------------- 
|                                                                             |
|  ADVICE TO THIS USER RUNNING 'VASP/VAMP'   (HEAR YOUR MASTER'S VOICE ...):  |
|                                                                             |
|      You have switched on vdW-DFT.                                          |
|      This routine was written and supplied by Jiri Klimes.                  |
|      We recommed that you carefully read and cite the following             |
|      publication                                                            |
|      J. Klimes, D.R. Bowler, A. Michelides                                  |
|        J. Phys.: Cond Matt. 22 022201 (2010)                                |
|      J. Klimes, D.R. Bowler, A. Michelides                                  |
|        Phys. Rev. B. 83, 195131 (2011)                                      |
|      and references therein.                                                |
|                                                                             |
 ----------------------------------------------------------------------------- 

 POTCAR:    PAW_PBE Si 05Jan2001                  
   VRHFIN =Si: s2p2                                                             
   LEXCH  = PE                                                                  
   EATOM  =   103.0669 eV,    7.5752 Ry                                         
                                                                                
   TITEL  = PAW_PBE Si 05Jan2001                                                
   LULTRA =        F    use ultrasoft PP ?                                      
   IUNSCR =        1    unscreen: 0-lin 1-nonlin 2-no                           
   RPACOR =    1.500    partial core radius                                     
   POMASS =   28.085; ZVAL   =    4.000    mass and valenz                      
   RCORE  =    1.900    outmost cutoff radius                                   
   RWIGS  =    2.480; RWIGS  =    1.312    wigner-seitz radius (au A)           
   ENMAX  =  245.345; ENMIN  =  184.009 eV                                      
   ICORE  =        2    local potential                                         
   LCOR   =        T    correct aug charges                                     
   LPAW   =        T    paw PP                                                  
   EAUG   =  322.069                                                            
   DEXC   =    0.000                                                            
   RMAX   =    1.950    core radius for proj-oper                               
   RAUG   =    1.300    factor for augmentation sphere                          
   RDEP   =    1.993    radius for radial grids                                 
   RDEPT  =    1.837    core radius for aug-charge                              
                                                                                
   Atomic configuration                                                         
    6 entries                                                                   
     n  l   j            E        occ.                                          
     1  0  0.50     -1785.8828   2.0000                                         
     2  0  0.50      -139.4969   2.0000                                         
     2  1  1.50       -95.5546   6.0000                                         
     3  0  0.50       -10.8127   2.0000                                         
     3  1  0.50        -4.0811   2.0000                                         
     3  2  1.50        -4.0817   0.0000                                         
   Description                                                                  
     l       E           TYP  RCUT    TYP  RCUT                                 
     0    -10.8127223     23  1.900                                             
     0     -7.6451159     23  1.900                                             
     1     -4.0811372     23  1.900                                             
     1      2.4879257     23  1.900                                             
     2     -4.0817478      7  1.900                                             
  local pseudopotential read in
  partial core-charges read in
  partial kinetic energy density read in
  atomic valenz-charges read in
  non local Contribution for L=           0  read in
    real space projection operators read in
  non local Contribution for L=           0  read in
    real space projection operators read in
  non local Contribution for L=           1  read in
    real space projection operators read in
  non local Contribution for L=           1  read in
    real space projection operators read in
    PAW grid and wavefunctions read in
 
   number of l-projection  operators is LMAX  =           4
   number of lm-projection operators is LMMAX =           8
 

 ----------------------------------------------------------------------------- 
|                                                                             |
|  ADVICE TO THIS USER RUNNING 'VASP/VAMP'   (HEAR YOUR MASTER'S VOICE ...):  |
|                                                                             |
|      You enforced a specific xc-type in the INCAR file,                     |
|      a different type was found on the POTCAR file                          |
|          I HOPE YOU KNOW, WHAT YOU ARE  DOING                               |
|                                                                             |
 ----------------------------------------------------------------------------- 

  PAW_PBE Si 05Jan2001                  :
 energy of atom  1       EATOM= -103.0669
 kinetic energy error for atom=    0.0006 (will be added to EATOM!!)
 
 
 POSCAR: bulk@JVASP-1002_mp-149                  
  positions in direct lattice
  No initial velocities read in
 exchange correlation table for  LEXCH =       42
   RHO(1)=    0.500       N(1)  =     2000
   RHO(2)=  100.500       N(2)  =     4000
 


--------------------------------------------------------------------------------------------------------


 ion  position               nearest neighbor table
   1  0.000  0.000  0.000-   2 2.38   4 2.38   6 2.38   8 2.38
   2  0.250  0.250  0.250-   1 2.38   3 2.38   5 2.38   7 2.38
   3  0.000  0.500  0.500-   2 2.38   4 2.38   6 2.38   8 2.38
   4  0.250  0.750  0.750-   1 2.38   3 2.38   5 2.38   7 2.38
   5  0.500  0.000  0.500-   2 2.38   4 2.38   6 2.38   8 2.38
   6  0.750  0.250  0.750-   1 2.38   3 2.38   5 2.38   7 2.38
   7  0.500  0.500  0.000-   2 2.38   4 2.38   6 2.38   8 2.38
   8  0.750  0.750  0.250-   1 2.38   3 2.38   5 2.38   7 2.38
 
  LATTYP: Found a simple cubic cell.
 ALAT       =     5.4936420000
  
  Lattice vectors:
  
 A1 = (   5.4936420000,   0.0000000000,   0.0000000000)
 A2 = (   0.0000000000,   5.4936420000,   0.0000000000)
 A3 = (   0.0000000000,   0.0000000000,   5.4936420000)


Analysis of symmetry for initial positions (statically):
=====================================================================
 Subroutine PRICEL returns following result:
 
  LATTYP: Found a face centered cubic cell.
 ALAT       =     5.4936420000
  
  Lattice vectors:
  
 A1 = (   2.7468210000,   2.7468210000,   0.0000000000)
 A2 = (   2.7468210000,   0.0000000000,  -2.7468210000)
 A3 = (   0.0000000000,   2.7468210000,  -2.7468210000)
 
   4 primitive cells build up your supercell.
 

 Routine SETGRP: Setting up the symmetry group for a 
 simple cubic supercell.


 Subroutine GETGRP returns: Found 48 space group operations
 (whereof 24 operations were pure point group operations)
 out of a pool of 48 trial point group operations.


The static configuration has the point symmetry T_d .
 The point group associated with its full space group is O_h .


Analysis of symmetry for dynamics (positions and initial velocities):
=====================================================================
 Subroutine PRICEL returns following result:
 
  LATTYP: Found a face centered cubic cell.
 ALAT       =     5.4936420000
  
  Lattice vectors:
  
 A1 = (   2.7468210000,   2.7468210000,   0.0000000000)
 A2 = (   2.7468210000,   0.0000000000,  -2.7468210000)
 A3 = (   0.0000000000,   2.7468210000,  -2.7468210000)
 
   4 primitive cells build up your supercell.
 

 Routine SETGRP: Setting up the symmetry group for a 
 simple cubic supercell.


 Subroutine GETGRP returns: Found 48 space group operations
 (whereof 24 operations were pure point group operations)
 out of a pool of 48 trial point group operations.


The dynamic configuration has the point symmetry T_d .
 The point group associated with its full space group is O_h .


Analysis of magnetic symmetry:
=====================================================================
 Subroutine PRICEL returns following result:
 
  LATTYP: Found a face centered cubic cell.
 ALAT       =     5.4936420000
  
  Lattice vectors:
  
 A1 = (   2.7468210000,   2.7468210000,   0.0000000000)
 A2 = (   2.7468210000,   0.0000000000,  -2.7468210000)
 A3 = (   0.0000000000,   2.7468210000,  -2.7468210000)
 
   4 primitive cells build up your supercell.
 

 Subroutine MAGSYM returns: Found 48 space group operations
 (whereof 24 operations were pure point group operations)
 out of a pool of 48 trial space group operations
 (whereof 24 operations were pure point group operations)
 and found also     4 'primitive' translations


The magnetic configuration has the point symmetry T_d .
 The point group associated with its full space group is O_h .


 irot  :   1
 --------------------------------------------------------------------
 isymop:   1   0   0
           0   1   0
           0   0   1

 gtrans:     0.0000000     0.0000000     0.0000000

 ptrans:     0.0000000     0.0000000     0.0000000
 rotmap:
 (   1->   1)  (   2->   2)  (   3->   3)  (   4->   4)  (   5->   5) 
 (   6->   6)  (   7->   7)  (   8->   8) 

 ptrans:     0.5000000     0.5000000     0.0000000
 rotmap:
 (   1->   7)  (   2->   8)  (   3->   5)  (   4->   6)  (   5->   3) 
 (   6->   4)  (   7->   1)  (   8->   2) 

 ptrans:     0.5000000     0.0000000     0.5000000
 rotmap:
 (   1->   5)  (   2->   6)  (   3->   7)  (   4->   8)  (   5->   1) 
 (   6->   2)  (   7->   3)  (   8->   4) 

 ptrans:     0.0000000     0.5000000     0.5000000
 rotmap:
 (   1->   3)  (   2->   4)  (   3->   1)  (   4->   2)  (   5->   7) 
 (   6->   8)  (   7->   5)  (   8->   6) 


 irot  :   2
 --------------------------------------------------------------------
 isymop:   0   0   1
           1   0   0
           0   1   0

 gtrans:     0.0000000     0.0000000     0.0000000

 ptrans:     0.0000000     0.0000000     0.0000000
 rotmap:
 (   1->   1)  (   2->   2)  (   3->   5)  (   4->   6)  (   5->   7) 
 (   6->   8)  (   7->   3)  (   8->   4) 

 ptrans:     0.5000000     0.5000000     0.0000000
 rotmap:
 (   1->   7)  (   2->   8)  (   3->   3)  (   4->   4)  (   5->   1) 
 (   6->   2)  (   7->   5)  (   8->   6) 

 ptrans:     0.5000000     0.0000000     0.5000000
 rotmap:
 (   1->   5)  (   2->   6)  (   3->   1)  (   4->   2)  (   5->   3) 
 (   6->   4)  (   7->   7)  (   8->   8) 

 ptrans:     0.0000000     0.5000000     0.5000000
 rotmap:
 (   1->   3)  (   2->   4)  (   3->   7)  (   4->   8)  (   5->   5) 
 (   6->   6)  (   7->   1)  (   8->   2) 


 irot  :   3
 --------------------------------------------------------------------
 isymop:   0   1   0
           0   0   1
           1   0   0

 gtrans:     0.0000000     0.0000000     0.0000000

 ptrans:     0.0000000     0.0000000     0.0000000
 rotmap:
 (   1->   1)  (   2->   2)  (   3->   7)  (   4->   8)  (   5->   3) 
 (   6->   4)  (   7->   5)  (   8->   6) 

 ptrans:     0.5000000     0.5000000     0.0000000
 rotmap:
 (   1->   7)  (   2->   8)  (   3->   1)  (   4->   2)  (   5->   5) 
 (   6->   6)  (   7->   3)  (   8->   4) 

 ptrans:     0.5000000     0.0000000     0.5000000
 rotmap:
 (   1->   5)  (   2->   6)  (   3->   3)  (   4->   4)  (   5->   7) 
 (   6->   8)  (   7->   1)  (   8->   2) 

 ptrans:     0.0000000     0.5000000     0.5000000
 rotmap:
 (   1->   3)  (   2->   4)  (   3->   5)  (   4->   6)  (   5->   1) 
 (   6->   2)  (   7->   7)  (   8->   8) 


 irot  :   4
 --------------------------------------------------------------------
 isymop:   0   1   0
          -1   0   0
           0   0  -1

 gtrans:     0.0000000     0.0000000     0.0000000

 ptrans:     0.0000000     0.0000000     0.0000000
 rotmap:
 (   1->   1)  (   2->   4)  (   3->   5)  (   4->   8)  (   5->   3) 
 (   6->   2)  (   7->   7)  (   8->   6) 

 ptrans:     0.5000000     0.5000000     0.0000000
 rotmap:
 (   1->   7)  (   2->   6)  (   3->   3)  (   4->   2)  (   5->   5) 
 (   6->   8)  (   7->   1)  (   8->   4) 

 ptrans:     0.5000000     0.0000000     0.5000000
 rotmap:
 (   1->   5)  (   2->   8)  (   3->   1)  (   4->   4)  (   5->   7) 
 (   6->   6)  (   7->   3)  (   8->   2) 

 ptrans:     0.0000000     0.5000000     0.5000000
 rotmap:
 (   1->   3)  (   2->   2)  (   3->   7)  (   4->   6)  (   5->   1) 
 (   6->   4)  (   7->   5)  (   8->   8) 


 irot  :   5
 --------------------------------------------------------------------
 isymop:   1   0   0
           0   0  -1
           0  -1   0

 gtrans:     0.0000000     0.0000000     0.0000000

 ptrans:     0.0000000     0.0000000     0.0000000
 rotmap:
 (   1->   1)  (   2->   4)  (   3->   3)  (   4->   2)  (   5->   7) 
 (   6->   6)  (   7->   5)  (   8->   8) 

 ptrans:     0.5000000     0.5000000     0.0000000
 rotmap:
 (   1->   7)  (   2->   6)  (   3->   5)  (   4->   8)  (   5->   1) 
 (   6->   4)  (   7->   3)  (   8->   2) 

 ptrans:     0.5000000     0.0000000     0.5000000
 rotmap:
 (   1->   5)  (   2->   8)  (   3->   7)  (   4->   6)  (   5->   3) 
 (   6->   2)  (   7->   1)  (   8->   4) 

 ptrans:     0.0000000     0.5000000     0.5000000
 rotmap:
 (   1->   3)  (   2->   2)  (   3->   1)  (   4->   4)  (   5->   5) 
 (   6->   8)  (   7->   7)  (   8->   6) 


 irot  :   6
 --------------------------------------------------------------------
 isymop:   0   0   1
           0  -1   0
          -1   0   0

 gtrans:     0.0000000     0.0000000     0.0000000

 ptrans:     0.0000000     0.0000000     0.0000000
 rotmap:
 (   1->   1)  (   2->   4)  (   3->   7)  (   4->   6)  (   5->   5) 
 (   6->   8)  (   7->   3)  (   8->   2) 

 ptrans:     0.5000000     0.5000000     0.0000000
 rotmap:
 (   1->   7)  (   2->   6)  (   3->   1)  (   4->   4)  (   5->   3) 
 (   6->   2)  (   7->   5)  (   8->   8) 

 ptrans:     0.5000000     0.0000000     0.5000000
 rotmap:
 (   1->   5)  (   2->   8)  (   3->   3)  (   4->   2)  (   5->   1) 
 (   6->   4)  (   7->   7)  (   8->   6) 

 ptrans:     0.0000000     0.5000000     0.5000000
 rotmap:
 (   1->   3)  (   2->   2)  (   3->   5)  (   4->   8)  (   5->   7) 
 (   6->   6)  (   7->   1)  (   8->   4) 


 irot  :   7
 --------------------------------------------------------------------
 isymop:  -1   0   0
           0  -1   0
           0   0   1

 gtrans:     0.0000000     0.0000000     0.0000000

 ptrans:     0.0000000     0.0000000     0.0000000
 rotmap:
 (   1->   1)  (   2->   8)  (   3->   3)  (   4->   6)  (   5->   5) 
 (   6->   4)  (   7->   7)  (   8->   2) 

 ptrans:     0.5000000     0.5000000     0.0000000
 rotmap:
 (   1->   7)  (   2->   2)  (   3->   5)  (   4->   4)  (   5->   3) 
 (   6->   6)  (   7->   1)  (   8->   8) 

 ptrans:     0.5000000     0.0000000     0.5000000
 rotmap:
 (   1->   5)  (   2->   4)  (   3->   7)  (   4->   2)  (   5->   1) 
 (   6->   8)  (   7->   3)  (   8->   6) 

 ptrans:     0.0000000     0.5000000     0.5000000
 rotmap:
 (   1->   3)  (   2->   6)  (   3->   1)  (   4->   8)  (   5->   7) 
 (   6->   2)  (   7->   5)  (   8->   4) 


 irot  :   8
 --------------------------------------------------------------------
 isymop:   0   0  -1
          -1   0   0
           0   1   0

 gtrans:     0.0000000     0.0000000     0.0000000

 ptrans:     0.0000000     0.0000000     0.0000000
 rotmap:
 (   1->   1)  (   2->   8)  (   3->   5)  (   4->   4)  (   5->   7) 
 (   6->   2)  (   7->   3)  (   8->   6) 

 ptrans:     0.5000000     0.5000000     0.0000000
 rotmap:
 (   1->   7)  (   2->   2)  (   3->   3)  (   4->   6)  (   5->   1) 
 (   6->   8)  (   7->   5)  (   8->   4) 

 ptrans:     0.5000000     0.0000000     0.5000000
 rotmap:
 (   1->   5)  (   2->   4)  (   3->   1)  (   4->   8)  (   5->   3) 
 (   6->   6)  (   7->   7)  (   8->   2) 

 ptrans:     0.0000000     0.5000000     0.5000000
 rotmap:
 (   1->   3)  (   2->   6)  (   3->   7)  (   4->   2)  (   5->   5) 
 (   6->   4)  (   7->   1)  (   8->   8) 


 irot  :   9
 --------------------------------------------------------------------
 isymop:   0  -1   0
           0   0  -1
           1   0   0

 gtrans:     0.0000000     0.0000000     0.0000000

 ptrans:     0.0000000     0.0000000     0.0000000
 rotmap:
 (   1->   1)  (   2->   8)  (   3->   7)  (   4->   2)  (   5->   3) 
 (   6->   6)  (   7->   5)  (   8->   4) 

 ptrans:     0.5000000     0.5000000     0.0000000
 rotmap:
 (   1->   7)  (   2->   2)  (   3->   1)  (   4->   8)  (   5->   5) 
 (   6->   4)  (   7->   3)  (   8->   6) 

 ptrans:     0.5000000     0.0000000     0.5000000
 rotmap:
 (   1->   5)  (   2->   4)  (   3->   3)  (   4->   6)  (   5->   7) 
 (   6->   2)  (   7->   1)  (   8->   8) 

 ptrans:     0.0000000     0.5000000     0.5000000
 rotmap:
 (   1->   3)  (   2->   6)  (   3->   5)  (   4->   4)  (   5->   1) 
 (   6->   8)  (   7->   7)  (   8->   2) 


 irot  :  10
 --------------------------------------------------------------------
 isymop:   0  -1   0
           1   0   0
           0   0  -1

 gtrans:     0.0000000     0.0000000     0.0000000

 ptrans:     0.0000000     0.0000000     0.0000000
 rotmap:
 (   1->   1)  (   2->   6)  (   3->   5)  (   4->   2)  (   5->   3) 
 (   6->   8)  (   7->   7)  (   8->   4) 

 ptrans:     0.5000000     0.5000000     0.0000000
 rotmap:
 (   1->   7)  (   2->   4)  (   3->   3)  (   4->   8)  (   5->   5) 
 (   6->   2)  (   7->   1)  (   8->   6) 

 ptrans:     0.5000000     0.0000000     0.5000000
 rotmap:
 (   1->   5)  (   2->   2)  (   3->   1)  (   4->   6)  (   5->   7) 
 (   6->   4)  (   7->   3)  (   8->   8) 

 ptrans:     0.0000000     0.5000000     0.5000000
 rotmap:
 (   1->   3)  (   2->   8)  (   3->   7)  (   4->   4)  (   5->   1) 
 (   6->   6)  (   7->   5)  (   8->   2) 


 irot  :  11
 --------------------------------------------------------------------
 isymop:  -1   0   0
           0   0   1
           0  -1   0

 gtrans:     0.0000000     0.0000000     0.0000000

 ptrans:     0.0000000     0.0000000     0.0000000
 rotmap:
 (   1->   1)  (   2->   6)  (   3->   3)  (   4->   8)  (   5->   7) 
 (   6->   4)  (   7->   5)  (   8->   2) 

 ptrans:     0.5000000     0.5000000     0.0000000
 rotmap:
 (   1->   7)  (   2->   4)  (   3->   5)  (   4->   2)  (   5->   1) 
 (   6->   6)  (   7->   3)  (   8->   8) 

 ptrans:     0.5000000     0.0000000     0.5000000
 rotmap:
 (   1->   5)  (   2->   2)  (   3->   7)  (   4->   4)  (   5->   3) 
 (   6->   8)  (   7->   1)  (   8->   6) 

 ptrans:     0.0000000     0.5000000     0.5000000
 rotmap:
 (   1->   3)  (   2->   8)  (   3->   1)  (   4->   6)  (   5->   5) 
 (   6->   2)  (   7->   7)  (   8->   4) 


 irot  :  12
 --------------------------------------------------------------------
 isymop:   0   0  -1
           0   1   0
          -1   0   0

 gtrans:     0.0000000     0.0000000     0.0000000

 ptrans:     0.0000000     0.0000000     0.0000000
 rotmap:
 (   1->   1)  (   2->   6)  (   3->   7)  (   4->   4)  (   5->   5) 
 (   6->   2)  (   7->   3)  (   8->   8) 

 ptrans:     0.5000000     0.5000000     0.0000000
 rotmap:
 (   1->   7)  (   2->   4)  (   3->   1)  (   4->   6)  (   5->   3) 
 (   6->   8)  (   7->   5)  (   8->   2) 

 ptrans:     0.5000000     0.0000000     0.5000000
 rotmap:
 (   1->   5)  (   2->   2)  (   3->   3)  (   4->   8)  (   5->   1) 
 (   6->   6)  (   7->   7)  (   8->   4) 

 ptrans:     0.0000000     0.5000000     0.5000000
 rotmap:
 (   1->   3)  (   2->   8)  (   3->   5)  (   4->   2)  (   5->   7) 
 (   6->   4)  (   7->   1)  (   8->   6) 


 irot  :  13
 --------------------------------------------------------------------
 isymop:   0   0   1
          -1   0   0
           0  -1   0

 gtrans:     0.0000000     0.0000000     0.0000000

 ptrans:     0.0000000     0.0000000     0.0000000
 rotmap:
 (   1->   1)  (   2->   4)  (   3->   5)  (   4->   8)  (   5->   7) 
 (   6->   6)  (   7->   3)  (   8->   2) 

 ptrans:     0.5000000     0.5000000     0.0000000
 rotmap:
 (   1->   7)  (   2->   6)  (   3->   3)  (   4->   2)  (   5->   1) 
 (   6->   4)  (   7->   5)  (   8->   8) 

 ptrans:     0.5000000     0.0000000     0.5000000
 rotmap:
 (   1->   5)  (   2->   8)  (   3->   1)  (   4->   4)  (   5->   3) 
 (   6->   2)  (   7->   7)  (   8->   6) 

 ptrans:     0.0000000     0.5000000     0.5000000
 rotmap:
 (   1->   3)  (   2->   2)  (   3->   7)  (   4->   6)  (   5->   5) 
 (   6->   8)  (   7->   1)  (   8->   4) 


 irot  :  14
 --------------------------------------------------------------------
 isymop:   0   1   0
           0   0  -1
          -1   0   0

 gtrans:     0.0000000     0.0000000     0.0000000

 ptrans:     0.0000000     0.0000000     0.0000000
 rotmap:
 (   1->   1)  (   2->   4)  (   3->   7)  (   4->   6)  (   5->   3) 
 (   6->   2)  (   7->   5)  (   8->   8) 

 ptrans:     0.5000000     0.5000000     0.0000000
 rotmap:
 (   1->   7)  (   2->   6)  (   3->   1)  (   4->   4)  (   5->   5) 
 (   6->   8)  (   7->   3)  (   8->   2) 

 ptrans:     0.5000000     0.0000000     0.5000000
 rotmap:
 (   1->   5)  (   2->   8)  (   3->   3)  (   4->   2)  (   5->   7) 
 (   6->   6)  (   7->   1)  (   8->   4) 

 ptrans:     0.0000000     0.5000000     0.5000000
 rotmap:
 (   1->   3)  (   2->   2)  (   3->   5)  (   4->   8)  (   5->   1) 
 (   6->   4)  (   7->   7)  (   8->   6) 


 irot  :  15
 --------------------------------------------------------------------
 isymop:   1   0   0
           0  -1   0
           0   0  -1

 gtrans:     0.0000000     0.0000000     0.0000000

 ptrans:     0.0000000     0.0000000     0.0000000
 rotmap:
 (   1->   1)  (   2->   4)  (   3->   3)  (   4->   2)  (   5->   5) 
 (   6->   8)  (   7->   7)  (   8->   6) 

 ptrans:     0.5000000     0.5000000     0.0000000
 rotmap:
 (   1->   7)  (   2->   6)  (   3->   5)  (   4->   8)  (   5->   3) 
 (   6->   2)  (   7->   1)  (   8->   4) 

 ptrans:     0.5000000     0.0000000     0.5000000
 rotmap:
 (   1->   5)  (   2->   8)  (   3->   7)  (   4->   6)  (   5->   1) 
 (   6->   4)  (   7->   3)  (   8->   2) 

 ptrans:     0.0000000     0.5000000     0.5000000
 rotmap:
 (   1->   3)  (   2->   2)  (   3->   1)  (   4->   4)  (   5->   7) 
 (   6->   6)  (   7->   5)  (   8->   8) 


 irot  :  16
 --------------------------------------------------------------------
 isymop:   0   0  -1
           0  -1   0
           1   0   0

 gtrans:     0.0000000     0.0000000     0.0000000

 ptrans:     0.0000000     0.0000000     0.0000000
 rotmap:
 (   1->   1)  (   2->   8)  (   3->   7)  (   4->   2)  (   5->   5) 
 (   6->   4)  (   7->   3)  (   8->   6) 

 ptrans:     0.5000000     0.5000000     0.0000000
 rotmap:
 (   1->   7)  (   2->   2)  (   3->   1)  (   4->   8)  (   5->   3) 
 (   6->   6)  (   7->   5)  (   8->   4) 

 ptrans:     0.5000000     0.0000000     0.5000000
 rotmap:
 (   1->   5)  (   2->   4)  (   3->   3)  (   4->   6)  (   5->   1) 
 (   6->   8)  (   7->   7)  (   8->   2) 

 ptrans:     0.0000000     0.5000000     0.5000000
 rotmap:
 (   1->   3)  (   2->   6)  (   3->   5)  (   4->   4)  (   5->   7) 
 (   6->   2)  (   7->   1)  (   8->   8) 


 irot  :  17
 --------------------------------------------------------------------
 isymop:   0  -1   0
          -1   0   0
           0   0   1

 gtrans:     0.0000000     0.0000000     0.0000000

 ptrans:     0.0000000     0.0000000     0.0000000
 rotmap:
 (   1->   1)  (   2->   8)  (   3->   5)  (   4->   4)  (   5->   3) 
 (   6->   6)  (   7->   7)  (   8->   2) 

 ptrans:     0.5000000     0.5000000     0.0000000
 rotmap:
 (   1->   7)  (   2->   2)  (   3->   3)  (   4->   6)  (   5->   5) 
 (   6->   4)  (   7->   1)  (   8->   8) 

 ptrans:     0.5000000     0.0000000     0.5000000
 rotmap:
 (   1->   5)  (   2->   4)  (   3->   1)  (   4->   8)  (   5->   7) 
 (   6->   2)  (   7->   3)  (   8->   6) 

 ptrans:     0.0000000     0.5000000     0.5000000
 rotmap:
 (   1->   3)  (   2->   6)  (   3->   7)  (   4->   2)  (   5->   1) 
 (   6->   8)  (   7->   5)  (   8->   4) 


 irot  :  18
 --------------------------------------------------------------------
 isymop:  -1   0   0
           0   0  -1
           0   1   0

 gtrans:     0.0000000     0.0000000     0.0000000

 ptrans:     0.0000000     0.0000000     0.0000000
 rotmap:
 (   1->   1)  (   2->   8)  (   3->   3)  (   4->   6)  (   5->   7) 
 (   6->   2)  (   7->   5)  (   8->   4) 

 ptrans:     0.5000000     0.5000000     0.0000000
 rotmap:
 (   1->   7)  (   2->   2)  (   3->   5)  (   4->   4)  (   5->   1) 
 (   6->   8)  (   7->   3)  (   8->   6) 

 ptrans:     0.5000000     0.0000000     0.5000000
 rotmap:
 (   1->   5)  (   2->   4)  (   3->   7)  (   4->   2)  (   5->   3) 
 (   6->   6)  (   7->   1)  (   8->   8) 

 ptrans:     0.0000000     0.5000000     0.5000000
 rotmap:
 (   1->   3)  (   2->   6)  (   3->   1)  (   4->   8)  (   5->   5) 
 (   6->   4)  (   7->   7)  (   8->   2) 


 irot  :  19
 --------------------------------------------------------------------
 isymop:   0  -1   0
           0   0   1
          -1   0   0

 gtrans:     0.0000000     0.0000000     0.0000000

 ptrans:     0.0000000     0.0000000     0.0000000
 rotmap:
 (   1->   1)  (   2->   6)  (   3->   7)  (   4->   4)  (   5->   3) 
 (   6->   8)  (   7->   5)  (   8->   2) 

 ptrans:     0.5000000     0.5000000     0.0000000
 rotmap:
 (   1->   7)  (   2->   4)  (   3->   1)  (   4->   6)  (   5->   5) 
 (   6->   2)  (   7->   3)  (   8->   8) 

 ptrans:     0.5000000     0.0000000     0.5000000
 rotmap:
 (   1->   5)  (   2->   2)  (   3->   3)  (   4->   8)  (   5->   7) 
 (   6->   4)  (   7->   1)  (   8->   6) 

 ptrans:     0.0000000     0.5000000     0.5000000
 rotmap:
 (   1->   3)  (   2->   8)  (   3->   5)  (   4->   2)  (   5->   1) 
 (   6->   6)  (   7->   7)  (   8->   4) 


 irot  :  20
 --------------------------------------------------------------------
 isymop:  -1   0   0
           0   1   0
           0   0  -1

 gtrans:     0.0000000     0.0000000     0.0000000

 ptrans:     0.0000000     0.0000000     0.0000000
 rotmap:
 (   1->   1)  (   2->   6)  (   3->   3)  (   4->   8)  (   5->   5) 
 (   6->   2)  (   7->   7)  (   8->   4) 

 ptrans:     0.5000000     0.5000000     0.0000000
 rotmap:
 (   1->   7)  (   2->   4)  (   3->   5)  (   4->   2)  (   5->   3) 
 (   6->   8)  (   7->   1)  (   8->   6) 

 ptrans:     0.5000000     0.0000000     0.5000000
 rotmap:
 (   1->   5)  (   2->   2)  (   3->   7)  (   4->   4)  (   5->   1) 
 (   6->   6)  (   7->   3)  (   8->   8) 

 ptrans:     0.0000000     0.5000000     0.5000000
 rotmap:
 (   1->   3)  (   2->   8)  (   3->   1)  (   4->   6)  (   5->   7) 
 (   6->   4)  (   7->   5)  (   8->   2) 


 irot  :  21
 --------------------------------------------------------------------
 isymop:   0   0  -1
           1   0   0
           0  -1   0

 gtrans:     0.0000000     0.0000000     0.0000000

 ptrans:     0.0000000     0.0000000     0.0000000
 rotmap:
 (   1->   1)  (   2->   6)  (   3->   5)  (   4->   2)  (   5->   7) 
 (   6->   4)  (   7->   3)  (   8->   8) 

 ptrans:     0.5000000     0.5000000     0.0000000
 rotmap:
 (   1->   7)  (   2->   4)  (   3->   3)  (   4->   8)  (   5->   1) 
 (   6->   6)  (   7->   5)  (   8->   2) 

 ptrans:     0.5000000     0.0000000     0.5000000
 rotmap:
 (   1->   5)  (   2->   2)  (   3->   1)  (   4->   6)  (   5->   3) 
 (   6->   8)  (   7->   7)  (   8->   4) 

 ptrans:     0.0000000     0.5000000     0.5000000
 rotmap:
 (   1->   3)  (   2->   8)  (   3->   7)  (   4->   4)  (   5->   5) 
 (   6->   2)  (   7->   1)  (   8->   6) 


 irot  :  22
 --------------------------------------------------------------------
 isymop:   1   0   0
           0   0   1
           0   1   0

 gtrans:     0.0000000     0.0000000     0.0000000

 ptrans:     0.0000000     0.0000000     0.0000000
 rotmap:
 (   1->   1)  (   2->   2)  (   3->   3)  (   4->   4)  (   5->   7) 
 (   6->   8)  (   7->   5)  (   8->   6) 

 ptrans:     0.5000000     0.5000000     0.0000000
 rotmap:
 (   1->   7)  (   2->   8)  (   3->   5)  (   4->   6)  (   5->   1) 
 (   6->   2)  (   7->   3)  (   8->   4) 

 ptrans:     0.5000000     0.0000000     0.5000000
 rotmap:
 (   1->   5)  (   2->   6)  (   3->   7)  (   4->   8)  (   5->   3) 
 (   6->   4)  (   7->   1)  (   8->   2) 

 ptrans:     0.0000000     0.5000000     0.5000000
 rotmap:
 (   1->   3)  (   2->   4)  (   3->   1)  (   4->   2)  (   5->   5) 
 (   6->   6)  (   7->   7)  (   8->   8) 


 irot  :  23
 --------------------------------------------------------------------
 isymop:   0   1   0
           1   0   0
           0   0   1

 gtrans:     0.0000000     0.0000000     0.0000000

 ptrans:     0.0000000     0.0000000     0.0000000
 rotmap:
 (   1->   1)  (   2->   2)  (   3->   5)  (   4->   6)  (   5->   3) 
 (   6->   4)  (   7->   7)  (   8->   8) 

 ptrans:     0.5000000     0.5000000     0.0000000
 rotmap:
 (   1->   7)  (   2->   8)  (   3->   3)  (   4->   4)  (   5->   5) 
 (   6->   6)  (   7->   1)  (   8->   2) 

 ptrans:     0.5000000     0.0000000     0.5000000
 rotmap:
 (   1->   5)  (   2->   6)  (   3->   1)  (   4->   2)  (   5->   7) 
 (   6->   8)  (   7->   3)  (   8->   4) 

 ptrans:     0.0000000     0.5000000     0.5000000
 rotmap:
 (   1->   3)  (   2->   4)  (   3->   7)  (   4->   8)  (   5->   1) 
 (   6->   2)  (   7->   5)  (   8->   6) 


 irot  :  24
 --------------------------------------------------------------------
 isymop:   0   0   1
           0   1   0
           1   0   0

 gtrans:     0.0000000     0.0000000     0.0000000

 ptrans:     0.0000000     0.0000000     0.0000000
 rotmap:
 (   1->   1)  (   2->   2)  (   3->   7)  (   4->   8)  (   5->   5) 
 (   6->   6)  (   7->   3)  (   8->   4) 

 ptrans:     0.5000000     0.5000000     0.0000000
 rotmap:
 (   1->   7)  (   2->   8)  (   3->   1)  (   4->   2)  (   5->   3) 
 (   6->   4)  (   7->   5)  (   8->   6) 

 ptrans:     0.5000000     0.0000000     0.5000000
 rotmap:
 (   1->   5)  (   2->   6)  (   3->   3)  (   4->   4)  (   5->   1) 
 (   6->   2)  (   7->   7)  (   8->   8) 

 ptrans:     0.0000000     0.5000000     0.5000000
 rotmap:
 (   1->   3)  (   2->   4)  (   3->   5)  (   4->   6)  (   5->   7) 
 (   6->   8)  (   7->   1)  (   8->   2) 


 irot  :  25
 --------------------------------------------------------------------
 isymop:  -1   0   0
           0  -1   0
           0   0  -1

 gtrans:     0.7500000     0.7500000    -0.7500000

 ptrans:     0.0000000     0.0000000     0.0000000
 rotmap:
 (   1->   8)  (   2->   7)  (   3->   6)  (   4->   5)  (   5->   4) 
 (   6->   3)  (   7->   2)  (   8->   1) 

 ptrans:     0.5000000     0.5000000     0.0000000
 rotmap:
 (   1->   2)  (   2->   1)  (   3->   4)  (   4->   3)  (   5->   6) 
 (   6->   5)  (   7->   8)  (   8->   7) 

 ptrans:     0.5000000     0.0000000     0.5000000
 rotmap:
 (   1->   4)  (   2->   3)  (   3->   2)  (   4->   1)  (   5->   8) 
 (   6->   7)  (   7->   6)  (   8->   5) 

 ptrans:     0.0000000     0.5000000     0.5000000
 rotmap:
 (   1->   6)  (   2->   5)  (   3->   8)  (   4->   7)  (   5->   2) 
 (   6->   1)  (   7->   4)  (   8->   3) 


 irot  :  26
 --------------------------------------------------------------------
 isymop:   0   0  -1
          -1   0   0
           0  -1   0

 gtrans:     0.7500000     0.7500000    -0.7500000

 ptrans:     0.0000000     0.0000000     0.0000000
 rotmap:
 (   1->   8)  (   2->   7)  (   3->   4)  (   4->   3)  (   5->   2) 
 (   6->   1)  (   7->   6)  (   8->   5) 

 ptrans:     0.5000000     0.5000000     0.0000000
 rotmap:
 (   1->   2)  (   2->   1)  (   3->   6)  (   4->   5)  (   5->   8) 
 (   6->   7)  (   7->   4)  (   8->   3) 

 ptrans:     0.5000000     0.0000000     0.5000000
 rotmap:
 (   1->   4)  (   2->   3)  (   3->   8)  (   4->   7)  (   5->   6) 
 (   6->   5)  (   7->   2)  (   8->   1) 

 ptrans:     0.0000000     0.5000000     0.5000000
 rotmap:
 (   1->   6)  (   2->   5)  (   3->   2)  (   4->   1)  (   5->   4) 
 (   6->   3)  (   7->   8)  (   8->   7) 


 irot  :  27
 --------------------------------------------------------------------
 isymop:   0  -1   0
           0   0  -1
          -1   0   0

 gtrans:     0.7500000     0.7500000    -0.7500000

 ptrans:     0.0000000     0.0000000     0.0000000
 rotmap:
 (   1->   8)  (   2->   7)  (   3->   2)  (   4->   1)  (   5->   6) 
 (   6->   5)  (   7->   4)  (   8->   3) 

 ptrans:     0.5000000     0.5000000     0.0000000
 rotmap:
 (   1->   2)  (   2->   1)  (   3->   8)  (   4->   7)  (   5->   4) 
 (   6->   3)  (   7->   6)  (   8->   5) 

 ptrans:     0.5000000     0.0000000     0.5000000
 rotmap:
 (   1->   4)  (   2->   3)  (   3->   6)  (   4->   5)  (   5->   2) 
 (   6->   1)  (   7->   8)  (   8->   7) 

 ptrans:     0.0000000     0.5000000     0.5000000
 rotmap:
 (   1->   6)  (   2->   5)  (   3->   4)  (   4->   3)  (   5->   8) 
 (   6->   7)  (   7->   2)  (   8->   1) 


 irot  :  28
 --------------------------------------------------------------------
 isymop:   0  -1   0
           1   0   0
           0   0   1

 gtrans:     0.7500000     0.7500000    -0.7500000

 ptrans:     0.0000000     0.0000000     0.0000000
 rotmap:
 (   1->   8)  (   2->   5)  (   3->   4)  (   4->   1)  (   5->   6) 
 (   6->   7)  (   7->   2)  (   8->   3) 

 ptrans:     0.5000000     0.5000000     0.0000000
 rotmap:
 (   1->   2)  (   2->   3)  (   3->   6)  (   4->   7)  (   5->   4) 
 (   6->   1)  (   7->   8)  (   8->   5) 

 ptrans:     0.5000000     0.0000000     0.5000000
 rotmap:
 (   1->   4)  (   2->   1)  (   3->   8)  (   4->   5)  (   5->   2) 
 (   6->   3)  (   7->   6)  (   8->   7) 

 ptrans:     0.0000000     0.5000000     0.5000000
 rotmap:
 (   1->   6)  (   2->   7)  (   3->   2)  (   4->   3)  (   5->   8) 
 (   6->   5)  (   7->   4)  (   8->   1) 


 irot  :  29
 --------------------------------------------------------------------
 isymop:  -1   0   0
           0   0   1
           0   1   0

 gtrans:     0.7500000     0.7500000    -0.7500000

 ptrans:     0.0000000     0.0000000     0.0000000
 rotmap:
 (   1->   8)  (   2->   5)  (   3->   6)  (   4->   7)  (   5->   2) 
 (   6->   3)  (   7->   4)  (   8->   1) 

 ptrans:     0.5000000     0.5000000     0.0000000
 rotmap:
 (   1->   2)  (   2->   3)  (   3->   4)  (   4->   1)  (   5->   8) 
 (   6->   5)  (   7->   6)  (   8->   7) 

 ptrans:     0.5000000     0.0000000     0.5000000
 rotmap:
 (   1->   4)  (   2->   1)  (   3->   2)  (   4->   3)  (   5->   6) 
 (   6->   7)  (   7->   8)  (   8->   5) 

 ptrans:     0.0000000     0.5000000     0.5000000
 rotmap:
 (   1->   6)  (   2->   7)  (   3->   8)  (   4->   5)  (   5->   4) 
 (   6->   1)  (   7->   2)  (   8->   3) 


 irot  :  30
 --------------------------------------------------------------------
 isymop:   0   0  -1
           0   1   0
           1   0   0

 gtrans:     0.7500000     0.7500000    -0.7500000

 ptrans:     0.0000000     0.0000000     0.0000000
 rotmap:
 (   1->   8)  (   2->   5)  (   3->   2)  (   4->   3)  (   5->   4) 
 (   6->   1)  (   7->   6)  (   8->   7) 

 ptrans:     0.5000000     0.5000000     0.0000000
 rotmap:
 (   1->   2)  (   2->   3)  (   3->   8)  (   4->   5)  (   5->   6) 
 (   6->   7)  (   7->   4)  (   8->   1) 

 ptrans:     0.5000000     0.0000000     0.5000000
 rotmap:
 (   1->   4)  (   2->   1)  (   3->   6)  (   4->   7)  (   5->   8) 
 (   6->   5)  (   7->   2)  (   8->   3) 

 ptrans:     0.0000000     0.5000000     0.5000000
 rotmap:
 (   1->   6)  (   2->   7)  (   3->   4)  (   4->   1)  (   5->   2) 
 (   6->   3)  (   7->   8)  (   8->   5) 


 irot  :  31
 --------------------------------------------------------------------
 isymop:   1   0   0
           0   1   0
           0   0  -1

 gtrans:     0.7500000     0.7500000    -0.7500000

 ptrans:     0.0000000     0.0000000     0.0000000
 rotmap:
 (   1->   8)  (   2->   1)  (   3->   6)  (   4->   3)  (   5->   4) 
 (   6->   5)  (   7->   2)  (   8->   7) 

 ptrans:     0.5000000     0.5000000     0.0000000
 rotmap:
 (   1->   2)  (   2->   7)  (   3->   4)  (   4->   5)  (   5->   6) 
 (   6->   3)  (   7->   8)  (   8->   1) 

 ptrans:     0.5000000     0.0000000     0.5000000
 rotmap:
 (   1->   4)  (   2->   5)  (   3->   2)  (   4->   7)  (   5->   8) 
 (   6->   1)  (   7->   6)  (   8->   3) 

 ptrans:     0.0000000     0.5000000     0.5000000
 rotmap:
 (   1->   6)  (   2->   3)  (   3->   8)  (   4->   1)  (   5->   2) 
 (   6->   7)  (   7->   4)  (   8->   5) 


 irot  :  32
 --------------------------------------------------------------------
 isymop:   0   0   1
           1   0   0
           0  -1   0

 gtrans:     0.7500000     0.7500000    -0.7500000

 ptrans:     0.0000000     0.0000000     0.0000000
 rotmap:
 (   1->   8)  (   2->   1)  (   3->   4)  (   4->   5)  (   5->   2) 
 (   6->   7)  (   7->   6)  (   8->   3) 

 ptrans:     0.5000000     0.5000000     0.0000000
 rotmap:
 (   1->   2)  (   2->   7)  (   3->   6)  (   4->   3)  (   5->   8) 
 (   6->   1)  (   7->   4)  (   8->   5) 

 ptrans:     0.5000000     0.0000000     0.5000000
 rotmap:
 (   1->   4)  (   2->   5)  (   3->   8)  (   4->   1)  (   5->   6) 
 (   6->   3)  (   7->   2)  (   8->   7) 

 ptrans:     0.0000000     0.5000000     0.5000000
 rotmap:
 (   1->   6)  (   2->   3)  (   3->   2)  (   4->   7)  (   5->   4) 
 (   6->   5)  (   7->   8)  (   8->   1) 


 irot  :  33
 --------------------------------------------------------------------
 isymop:   0   1   0
           0   0   1
          -1   0   0

 gtrans:     0.7500000     0.7500000    -0.7500000

 ptrans:     0.0000000     0.0000000     0.0000000
 rotmap:
 (   1->   8)  (   2->   1)  (   3->   2)  (   4->   7)  (   5->   6) 
 (   6->   3)  (   7->   4)  (   8->   5) 

 ptrans:     0.5000000     0.5000000     0.0000000
 rotmap:
 (   1->   2)  (   2->   7)  (   3->   8)  (   4->   1)  (   5->   4) 
 (   6->   5)  (   7->   6)  (   8->   3) 

 ptrans:     0.5000000     0.0000000     0.5000000
 rotmap:
 (   1->   4)  (   2->   5)  (   3->   6)  (   4->   3)  (   5->   2) 
 (   6->   7)  (   7->   8)  (   8->   1) 

 ptrans:     0.0000000     0.5000000     0.5000000
 rotmap:
 (   1->   6)  (   2->   3)  (   3->   4)  (   4->   5)  (   5->   8) 
 (   6->   1)  (   7->   2)  (   8->   7) 


 irot  :  34
 --------------------------------------------------------------------
 isymop:   0   1   0
          -1   0   0
           0   0   1

 gtrans:     0.7500000     0.7500000    -0.7500000

 ptrans:     0.0000000     0.0000000     0.0000000
 rotmap:
 (   1->   8)  (   2->   3)  (   3->   4)  (   4->   7)  (   5->   6) 
 (   6->   1)  (   7->   2)  (   8->   5) 

 ptrans:     0.5000000     0.5000000     0.0000000
 rotmap:
 (   1->   2)  (   2->   5)  (   3->   6)  (   4->   1)  (   5->   4) 
 (   6->   7)  (   7->   8)  (   8->   3) 

 ptrans:     0.5000000     0.0000000     0.5000000
 rotmap:
 (   1->   4)  (   2->   7)  (   3->   8)  (   4->   3)  (   5->   2) 
 (   6->   5)  (   7->   6)  (   8->   1) 

 ptrans:     0.0000000     0.5000000     0.5000000
 rotmap:
 (   1->   6)  (   2->   1)  (   3->   2)  (   4->   5)  (   5->   8) 
 (   6->   3)  (   7->   4)  (   8->   7) 


 irot  :  35
 --------------------------------------------------------------------
 isymop:   1   0   0
           0   0  -1
           0   1   0

 gtrans:     0.7500000     0.7500000    -0.7500000

 ptrans:     0.0000000     0.0000000     0.0000000
 rotmap:
 (   1->   8)  (   2->   3)  (   3->   6)  (   4->   1)  (   5->   2) 
 (   6->   5)  (   7->   4)  (   8->   7) 

 ptrans:     0.5000000     0.5000000     0.0000000
 rotmap:
 (   1->   2)  (   2->   5)  (   3->   4)  (   4->   7)  (   5->   8) 
 (   6->   3)  (   7->   6)  (   8->   1) 

 ptrans:     0.5000000     0.0000000     0.5000000
 rotmap:
 (   1->   4)  (   2->   7)  (   3->   2)  (   4->   5)  (   5->   6) 
 (   6->   1)  (   7->   8)  (   8->   3) 

 ptrans:     0.0000000     0.5000000     0.5000000
 rotmap:
 (   1->   6)  (   2->   1)  (   3->   8)  (   4->   3)  (   5->   4) 
 (   6->   7)  (   7->   2)  (   8->   5) 


 irot  :  36
 --------------------------------------------------------------------
 isymop:   0   0   1
           0  -1   0
           1   0   0

 gtrans:     0.7500000     0.7500000    -0.7500000

 ptrans:     0.0000000     0.0000000     0.0000000
 rotmap:
 (   1->   8)  (   2->   3)  (   3->   2)  (   4->   5)  (   5->   4) 
 (   6->   7)  (   7->   6)  (   8->   1) 

 ptrans:     0.5000000     0.5000000     0.0000000
 rotmap:
 (   1->   2)  (   2->   5)  (   3->   8)  (   4->   3)  (   5->   6) 
 (   6->   1)  (   7->   4)  (   8->   7) 

 ptrans:     0.5000000     0.0000000     0.5000000
 rotmap:
 (   1->   4)  (   2->   7)  (   3->   6)  (   4->   1)  (   5->   8) 
 (   6->   3)  (   7->   2)  (   8->   5) 

 ptrans:     0.0000000     0.5000000     0.5000000
 rotmap:
 (   1->   6)  (   2->   1)  (   3->   4)  (   4->   7)  (   5->   2) 
 (   6->   5)  (   7->   8)  (   8->   3) 


 irot  :  37
 --------------------------------------------------------------------
 isymop:   0   0  -1
           1   0   0
           0   1   0

 gtrans:     0.7500000     0.7500000    -0.7500000

 ptrans:     0.0000000     0.0000000     0.0000000
 rotmap:
 (   1->   8)  (   2->   5)  (   3->   4)  (   4->   1)  (   5->   2) 
 (   6->   3)  (   7->   6)  (   8->   7) 

 ptrans:     0.5000000     0.5000000     0.0000000
 rotmap:
 (   1->   2)  (   2->   3)  (   3->   6)  (   4->   7)  (   5->   8) 
 (   6->   5)  (   7->   4)  (   8->   1) 

 ptrans:     0.5000000     0.0000000     0.5000000
 rotmap:
 (   1->   4)  (   2->   1)  (   3->   8)  (   4->   5)  (   5->   6) 
 (   6->   7)  (   7->   2)  (   8->   3) 

 ptrans:     0.0000000     0.5000000     0.5000000
 rotmap:
 (   1->   6)  (   2->   7)  (   3->   2)  (   4->   3)  (   5->   4) 
 (   6->   1)  (   7->   8)  (   8->   5) 


 irot  :  38
 --------------------------------------------------------------------
 isymop:   0  -1   0
           0   0   1
           1   0   0

 gtrans:     0.7500000     0.7500000    -0.7500000

 ptrans:     0.0000000     0.0000000     0.0000000
 rotmap:
 (   1->   8)  (   2->   5)  (   3->   2)  (   4->   3)  (   5->   6) 
 (   6->   7)  (   7->   4)  (   8->   1) 

 ptrans:     0.5000000     0.5000000     0.0000000
 rotmap:
 (   1->   2)  (   2->   3)  (   3->   8)  (   4->   5)  (   5->   4) 
 (   6->   1)  (   7->   6)  (   8->   7) 

 ptrans:     0.5000000     0.0000000     0.5000000
 rotmap:
 (   1->   4)  (   2->   1)  (   3->   6)  (   4->   7)  (   5->   2) 
 (   6->   3)  (   7->   8)  (   8->   5) 

 ptrans:     0.0000000     0.5000000     0.5000000
 rotmap:
 (   1->   6)  (   2->   7)  (   3->   4)  (   4->   1)  (   5->   8) 
 (   6->   5)  (   7->   2)  (   8->   3) 


 irot  :  39
 --------------------------------------------------------------------
 isymop:  -1   0   0
           0   1   0
           0   0   1

 gtrans:     0.7500000     0.7500000    -0.7500000

 ptrans:     0.0000000     0.0000000     0.0000000
 rotmap:
 (   1->   8)  (   2->   5)  (   3->   6)  (   4->   7)  (   5->   4) 
 (   6->   1)  (   7->   2)  (   8->   3) 

 ptrans:     0.5000000     0.5000000     0.0000000
 rotmap:
 (   1->   2)  (   2->   3)  (   3->   4)  (   4->   1)  (   5->   6) 
 (   6->   7)  (   7->   8)  (   8->   5) 

 ptrans:     0.5000000     0.0000000     0.5000000
 rotmap:
 (   1->   4)  (   2->   1)  (   3->   2)  (   4->   3)  (   5->   8) 
 (   6->   5)  (   7->   6)  (   8->   7) 

 ptrans:     0.0000000     0.5000000     0.5000000
 rotmap:
 (   1->   6)  (   2->   7)  (   3->   8)  (   4->   5)  (   5->   2) 
 (   6->   3)  (   7->   4)  (   8->   1) 


 irot  :  40
 --------------------------------------------------------------------
 isymop:   0   0   1
           0   1   0
          -1   0   0

 gtrans:     0.7500000     0.7500000    -0.7500000

 ptrans:     0.0000000     0.0000000     0.0000000
 rotmap:
 (   1->   8)  (   2->   1)  (   3->   2)  (   4->   7)  (   5->   4) 
 (   6->   5)  (   7->   6)  (   8->   3) 

 ptrans:     0.5000000     0.5000000     0.0000000
 rotmap:
 (   1->   2)  (   2->   7)  (   3->   8)  (   4->   1)  (   5->   6) 
 (   6->   3)  (   7->   4)  (   8->   5) 

 ptrans:     0.5000000     0.0000000     0.5000000
 rotmap:
 (   1->   4)  (   2->   5)  (   3->   6)  (   4->   3)  (   5->   8) 
 (   6->   1)  (   7->   2)  (   8->   7) 

 ptrans:     0.0000000     0.5000000     0.5000000
 rotmap:
 (   1->   6)  (   2->   3)  (   3->   4)  (   4->   5)  (   5->   2) 
 (   6->   7)  (   7->   8)  (   8->   1) 


 irot  :  41
 --------------------------------------------------------------------
 isymop:   0   1   0
           1   0   0
           0   0  -1

 gtrans:     0.7500000     0.7500000    -0.7500000

 ptrans:     0.0000000     0.0000000     0.0000000
 rotmap:
 (   1->   8)  (   2->   1)  (   3->   4)  (   4->   5)  (   5->   6) 
 (   6->   3)  (   7->   2)  (   8->   7) 

 ptrans:     0.5000000     0.5000000     0.0000000
 rotmap:
 (   1->   2)  (   2->   7)  (   3->   6)  (   4->   3)  (   5->   4) 
 (   6->   5)  (   7->   8)  (   8->   1) 

 ptrans:     0.5000000     0.0000000     0.5000000
 rotmap:
 (   1->   4)  (   2->   5)  (   3->   8)  (   4->   1)  (   5->   2) 
 (   6->   7)  (   7->   6)  (   8->   3) 

 ptrans:     0.0000000     0.5000000     0.5000000
 rotmap:
 (   1->   6)  (   2->   3)  (   3->   2)  (   4->   7)  (   5->   8) 
 (   6->   1)  (   7->   4)  (   8->   5) 


 irot  :  42
 --------------------------------------------------------------------
 isymop:   1   0   0
           0   0   1
           0  -1   0

 gtrans:     0.7500000     0.7500000    -0.7500000

 ptrans:     0.0000000     0.0000000     0.0000000
 rotmap:
 (   1->   8)  (   2->   1)  (   3->   6)  (   4->   3)  (   5->   2) 
 (   6->   7)  (   7->   4)  (   8->   5) 

 ptrans:     0.5000000     0.5000000     0.0000000
 rotmap:
 (   1->   2)  (   2->   7)  (   3->   4)  (   4->   5)  (   5->   8) 
 (   6->   1)  (   7->   6)  (   8->   3) 

 ptrans:     0.5000000     0.0000000     0.5000000
 rotmap:
 (   1->   4)  (   2->   5)  (   3->   2)  (   4->   7)  (   5->   6) 
 (   6->   3)  (   7->   8)  (   8->   1) 

 ptrans:     0.0000000     0.5000000     0.5000000
 rotmap:
 (   1->   6)  (   2->   3)  (   3->   8)  (   4->   1)  (   5->   4) 
 (   6->   5)  (   7->   2)  (   8->   7) 


 irot  :  43
 --------------------------------------------------------------------
 isymop:   0   1   0
           0   0  -1
           1   0   0

 gtrans:     0.7500000     0.7500000    -0.7500000

 ptrans:     0.0000000     0.0000000     0.0000000
 rotmap:
 (   1->   8)  (   2->   3)  (   3->   2)  (   4->   5)  (   5->   6) 
 (   6->   1)  (   7->   4)  (   8->   7) 

 ptrans:     0.5000000     0.5000000     0.0000000
 rotmap:
 (   1->   2)  (   2->   5)  (   3->   8)  (   4->   3)  (   5->   4) 
 (   6->   7)  (   7->   6)  (   8->   1) 

 ptrans:     0.5000000     0.0000000     0.5000000
 rotmap:
 (   1->   4)  (   2->   7)  (   3->   6)  (   4->   1)  (   5->   2) 
 (   6->   5)  (   7->   8)  (   8->   3) 

 ptrans:     0.0000000     0.5000000     0.5000000
 rotmap:
 (   1->   6)  (   2->   1)  (   3->   4)  (   4->   7)  (   5->   8) 
 (   6->   3)  (   7->   2)  (   8->   5) 


 irot  :  44
 --------------------------------------------------------------------
 isymop:   1   0   0
           0  -1   0
           0   0   1

 gtrans:     0.7500000     0.7500000    -0.7500000

 ptrans:     0.0000000     0.0000000     0.0000000
 rotmap:
 (   1->   8)  (   2->   3)  (   3->   6)  (   4->   1)  (   5->   4) 
 (   6->   7)  (   7->   2)  (   8->   5) 

 ptrans:     0.5000000     0.5000000     0.0000000
 rotmap:
 (   1->   2)  (   2->   5)  (   3->   4)  (   4->   7)  (   5->   6) 
 (   6->   1)  (   7->   8)  (   8->   3) 

 ptrans:     0.5000000     0.0000000     0.5000000
 rotmap:
 (   1->   4)  (   2->   7)  (   3->   2)  (   4->   5)  (   5->   8) 
 (   6->   3)  (   7->   6)  (   8->   1) 

 ptrans:     0.0000000     0.5000000     0.5000000
 rotmap:
 (   1->   6)  (   2->   1)  (   3->   8)  (   4->   3)  (   5->   2) 
 (   6->   5)  (   7->   4)  (   8->   7) 


 irot  :  45
 --------------------------------------------------------------------
 isymop:   0   0   1
          -1   0   0
           0   1   0

 gtrans:     0.7500000     0.7500000    -0.7500000

 ptrans:     0.0000000     0.0000000     0.0000000
 rotmap:
 (   1->   8)  (   2->   3)  (   3->   4)  (   4->   7)  (   5->   2) 
 (   6->   5)  (   7->   6)  (   8->   1) 

 ptrans:     0.5000000     0.5000000     0.0000000
 rotmap:
 (   1->   2)  (   2->   5)  (   3->   6)  (   4->   1)  (   5->   8) 
 (   6->   3)  (   7->   4)  (   8->   7) 

 ptrans:     0.5000000     0.0000000     0.5000000
 rotmap:
 (   1->   4)  (   2->   7)  (   3->   8)  (   4->   3)  (   5->   6) 
 (   6->   1)  (   7->   2)  (   8->   5) 

 ptrans:     0.0000000     0.5000000     0.5000000
 rotmap:
 (   1->   6)  (   2->   1)  (   3->   2)  (   4->   5)  (   5->   4) 
 (   6->   7)  (   7->   8)  (   8->   3) 


 irot  :  46
 --------------------------------------------------------------------
 isymop:  -1   0   0
           0   0  -1
           0  -1   0

 gtrans:     0.7500000     0.7500000    -0.7500000

 ptrans:     0.0000000     0.0000000     0.0000000
 rotmap:
 (   1->   8)  (   2->   7)  (   3->   6)  (   4->   5)  (   5->   2) 
 (   6->   1)  (   7->   4)  (   8->   3) 

 ptrans:     0.5000000     0.5000000     0.0000000
 rotmap:
 (   1->   2)  (   2->   1)  (   3->   4)  (   4->   3)  (   5->   8) 
 (   6->   7)  (   7->   6)  (   8->   5) 

 ptrans:     0.5000000     0.0000000     0.5000000
 rotmap:
 (   1->   4)  (   2->   3)  (   3->   2)  (   4->   1)  (   5->   6) 
 (   6->   5)  (   7->   8)  (   8->   7) 

 ptrans:     0.0000000     0.5000000     0.5000000
 rotmap:
 (   1->   6)  (   2->   5)  (   3->   8)  (   4->   7)  (   5->   4) 
 (   6->   3)  (   7->   2)  (   8->   1) 


 irot  :  47
 --------------------------------------------------------------------
 isymop:   0  -1   0
          -1   0   0
           0   0  -1

 gtrans:     0.7500000     0.7500000    -0.7500000

 ptrans:     0.0000000     0.0000000     0.0000000
 rotmap:
 (   1->   8)  (   2->   7)  (   3->   4)  (   4->   3)  (   5->   6) 
 (   6->   5)  (   7->   2)  (   8->   1) 

 ptrans:     0.5000000     0.5000000     0.0000000
 rotmap:
 (   1->   2)  (   2->   1)  (   3->   6)  (   4->   5)  (   5->   4) 
 (   6->   3)  (   7->   8)  (   8->   7) 

 ptrans:     0.5000000     0.0000000     0.5000000
 rotmap:
 (   1->   4)  (   2->   3)  (   3->   8)  (   4->   7)  (   5->   2) 
 (   6->   1)  (   7->   6)  (   8->   5) 

 ptrans:     0.0000000     0.5000000     0.5000000
 rotmap:
 (   1->   6)  (   2->   5)  (   3->   2)  (   4->   1)  (   5->   8) 
 (   6->   7)  (   7->   4)  (   8->   3) 


 irot  :  48
 --------------------------------------------------------------------
 isymop:   0   0  -1
           0  -1   0
          -1   0   0

 gtrans:     0.7500000     0.7500000    -0.7500000

 ptrans:     0.0000000     0.0000000     0.0000000
 rotmap:
 (   1->   8)  (   2->   7)  (   3->   2)  (   4->   1)  (   5->   4) 
 (   6->   3)  (   7->   6)  (   8->   5) 

 ptrans:     0.5000000     0.5000000     0.0000000
 rotmap:
 (   1->   2)  (   2->   1)  (   3->   8)  (   4->   7)  (   5->   6) 
 (   6->   5)  (   7->   4)  (   8->   3) 

 ptrans:     0.5000000     0.0000000     0.5000000
 rotmap:
 (   1->   4)  (   2->   3)  (   3->   6)  (   4->   5)  (   5->   8) 
 (   6->   7)  (   7->   2)  (   8->   1) 

 ptrans:     0.0000000     0.5000000     0.5000000
 rotmap:
 (   1->   6)  (   2->   5)  (   3->   4)  (   4->   3)  (   5->   2) 
 (   6->   1)  (   7->   8)  (   8->   7) 
 
 
 KPOINTS: Automatic kpoint scheme                 

Automatic generation of k-mesh.
Space group operators:
 irot       det(A)        alpha          n_x          n_y          n_z        tau_x        tau_y        tau_z
    1     1.000000     0.000001     1.000000     0.000000     0.000000     0.000000     0.000000     0.000000
    2     1.000000   120.000000    -0.577350    -0.577350    -0.577350     0.000000     0.000000     0.000000
    3     1.000000   120.000000     0.577350     0.577350     0.577350     0.000000     0.000000     0.000000
    4    -1.000000    90.000000     0.000000     0.000000    -1.000000     0.000000     0.000000     0.000000
    5    -1.000000   180.000000     0.000000     0.707107     0.707107     0.000000     0.000000     0.000000
    6    -1.000000    90.000000     0.000000     1.000000     0.000000     0.000000     0.000000     0.000000
    7     1.000000   180.000000     0.000000     0.000000     1.000000     0.000000     0.000000     0.000000
    8     1.000000   120.000000    -0.577350     0.577350     0.577350     0.000000     0.000000     0.000000
    9     1.000000   120.000000    -0.577350     0.577350    -0.577350     0.000000     0.000000     0.000000
   10    -1.000000    90.000000     0.000000     0.000000     1.000000     0.000000     0.000000     0.000000
   11    -1.000000    90.000000    -1.000000     0.000000     0.000000     0.000000     0.000000     0.000000
   12    -1.000000   180.000000     0.707107     0.000000     0.707107     0.000000     0.000000     0.000000
   13     1.000000   120.000000     0.577350    -0.577350     0.577350     0.000000     0.000000     0.000000
   14     1.000000   120.000000    -0.577350    -0.577350     0.577350     0.000000     0.000000     0.000000
   15     1.000000   180.000000     1.000000     0.000000     0.000000     0.000000     0.000000     0.000000
   16    -1.000000    90.000000     0.000000    -1.000000     0.000000     0.000000     0.000000     0.000000
   17    -1.000000   180.000000     0.707107     0.707107     0.000000     0.000000     0.000000     0.000000
   18    -1.000000    90.000000     1.000000     0.000000     0.000000     0.000000     0.000000     0.000000
   19     1.000000   120.000000     0.577350    -0.577350    -0.577350     0.000000     0.000000     0.000000
   20     1.000000   180.000000     0.000000     1.000000     0.000000     0.000000     0.000000     0.000000
   21     1.000000   120.000000     0.577350     0.577350    -0.577350     0.000000     0.000000     0.000000
   22    -1.000000   180.000000     0.000000    -0.707107     0.707107     0.000000     0.000000     0.000000
   23    -1.000000   180.000000     0.707107    -0.707107     0.000000     0.000000     0.000000     0.000000
   24    -1.000000   180.000000     0.707107     0.000000    -0.707107     0.000000     0.000000     0.000000
   25    -1.000000     0.000001     1.000000     0.000000     0.000000     0.750000     0.750000    -0.750000
   26    -1.000000   120.000000    -0.577350    -0.577350    -0.577350     0.750000     0.750000    -0.750000
   27    -1.000000   120.000000     0.577350     0.577350     0.577350     0.750000     0.750000    -0.750000
   28     1.000000    90.000000     0.000000     0.000000    -1.000000     0.750000     0.750000    -0.750000
   29     1.000000   180.000000     0.000000     0.707107     0.707107     0.750000     0.750000    -0.750000
   30     1.000000    90.000000     0.000000     1.000000     0.000000     0.750000     0.750000    -0.750000
   31    -1.000000   180.000000     0.000000     0.000000     1.000000     0.750000     0.750000    -0.750000
   32    -1.000000   120.000000    -0.577350     0.577350     0.577350     0.750000     0.750000    -0.750000
   33    -1.000000   120.000000    -0.577350     0.577350    -0.577350     0.750000     0.750000    -0.750000
   34     1.000000    90.000000     0.000000     0.000000     1.000000     0.750000     0.750000    -0.750000
   35     1.000000    90.000000    -1.000000     0.000000     0.000000     0.750000     0.750000    -0.750000
   36     1.000000   180.000000     0.707107     0.000000     0.707107     0.750000     0.750000    -0.750000
   37    -1.000000   120.000000     0.577350    -0.577350     0.577350     0.750000     0.750000    -0.750000
   38    -1.000000   120.000000    -0.577350    -0.577350     0.577350     0.750000     0.750000    -0.750000
   39    -1.000000   180.000000     1.000000     0.000000     0.000000     0.750000     0.750000    -0.750000
   40     1.000000    90.000000     0.000000    -1.000000     0.000000     0.750000     0.750000    -0.750000
   41     1.000000   180.000000     0.707107     0.707107     0.000000     0.750000     0.750000    -0.750000
   42     1.000000    90.000000     1.000000     0.000000     0.000000     0.750000     0.750000    -0.750000
   43    -1.000000   120.000000     0.577350    -0.577350    -0.577350     0.750000     0.750000    -0.750000
   44    -1.000000   180.000000     0.000000     1.000000     0.000000     0.750000     0.750000    -0.750000
   45    -1.000000   120.000000     0.577350     0.577350    -0.577350     0.750000     0.750000    -0.750000
   46     1.000000   180.000000     0.000000    -0.707107     0.707107     0.750000     0.750000    -0.750000
   47     1.000000   180.000000     0.707107    -0.707107     0.000000     0.750000     0.750000    -0.750000
   48     1.000000   180.000000     0.707107     0.000000    -0.707107     0.750000     0.750000    -0.750000
 
 Subroutine IBZKPT returns following result:
 ===========================================
 
 Found     20 irreducible k-points:
 
 Following reciprocal coordinates:
            Coordinates               Weight
  0.000000  0.000000  0.000000      1.000000
  0.166667  0.000000  0.000000      6.000000
  0.333333  0.000000  0.000000      6.000000
  0.500000  0.000000  0.000000      3.000000
  0.166667  0.166667  0.000000     12.000000
  0.333333  0.166667  0.000000     24.000000
  0.500000  0.166667  0.000000     12.000000
  0.333333  0.333333  0.000000     12.000000
  0.500000  0.333333  0.000000     12.000000
  0.500000  0.500000  0.000000      3.000000
  0.166667  0.166667  0.166667      8.000000
  0.333333  0.166667  0.166667     24.000000
  0.500000  0.166667  0.166667     12.000000
  0.333333  0.333333  0.166667     24.000000
  0.500000  0.333333  0.166667     24.000000
  0.500000  0.500000  0.166667      6.000000
  0.333333  0.333333  0.333333      8.000000
  0.500000  0.333333  0.333333     12.000000
  0.500000  0.500000  0.333333      6.000000
  0.500000  0.500000  0.500000      1.000000
 
 Following cartesian coordinates:
            Coordinates               Weight
  0.000000  0.000000  0.000000      1.000000
  0.030338  0.000000  0.000000      6.000000
  0.060676  0.000000  0.000000      6.000000
  0.091014  0.000000  0.000000      3.000000
  0.030338  0.030338  0.000000     12.000000
  0.060676  0.030338  0.000000     24.000000
  0.091014  0.030338  0.000000     12.000000
  0.060676  0.060676  0.000000     12.000000
  0.091014  0.060676  0.000000     12.000000
  0.091014  0.091014  0.000000      3.000000
  0.030338  0.030338  0.030338      8.000000
  0.060676  0.030338  0.030338     24.000000
  0.091014  0.030338  0.030338     12.000000
  0.060676  0.060676  0.030338     24.000000
  0.091014  0.060676  0.030338     24.000000
  0.091014  0.091014  0.030338      6.000000
  0.060676  0.060676  0.060676      8.000000
  0.091014  0.060676  0.060676     12.000000
  0.091014  0.091014  0.060676      6.000000
  0.091014  0.091014  0.091014      1.000000
 
 
 Subroutine IBZKPT_HF returns following result:
 ==============================================
 
 Found    216 k-points in 1st BZ
 the following    216 k-points will be used (e.g. in the exchange kernel)
 Following reciprocal coordinates:   # in IRBZ
  0.000000  0.000000  0.000000    0.00462963   1 t-inv F
  0.166667  0.000000  0.000000    0.00462963   2 t-inv F
  0.333333  0.000000  0.000000    0.00462963   3 t-inv F
  0.500000  0.000000  0.000000    0.00462963   4 t-inv F
  0.166667  0.166667  0.000000    0.00462963   5 t-inv F
  0.333333  0.166667  0.000000    0.00462963   6 t-inv F
  0.500000  0.166667  0.000000    0.00462963   7 t-inv F
  0.333333  0.333333  0.000000    0.00462963   8 t-inv F
  0.500000  0.333333  0.000000    0.00462963   9 t-inv F
  0.500000  0.500000  0.000000    0.00462963  10 t-inv F
  0.166667  0.166667  0.166667    0.00462963  11 t-inv F
  0.333333  0.166667  0.166667    0.00462963  12 t-inv F
  0.500000  0.166667  0.166667    0.00462963  13 t-inv F
  0.333333  0.333333  0.166667    0.00462963  14 t-inv F
  0.500000  0.333333  0.166667    0.00462963  15 t-inv F
  0.500000  0.500000  0.166667    0.00462963  16 t-inv F
  0.333333  0.333333  0.333333    0.00462963  17 t-inv F
  0.500000  0.333333  0.333333    0.00462963  18 t-inv F
  0.500000  0.500000  0.333333    0.00462963  19 t-inv F
  0.500000  0.500000  0.500000    0.00462963  20 t-inv F
  0.000000  0.166667  0.000000    0.00462963   2 t-inv F
  0.000000  0.000000  0.166667    0.00462963   2 t-inv F
  0.000000 -0.166667  0.000000    0.00462963   2 t-inv F
  0.000000  0.000000 -0.166667    0.00462963   2 t-inv F
 -0.166667  0.000000  0.000000    0.00462963   2 t-inv F
  0.000000  0.333333  0.000000    0.00462963   3 t-inv F
  0.000000  0.000000  0.333333    0.00462963   3 t-inv F
  0.000000 -0.333333  0.000000    0.00462963   3 t-inv F
  0.000000  0.000000 -0.333333    0.00462963   3 t-inv F
 -0.333333  0.000000  0.000000    0.00462963   3 t-inv F
  0.000000  0.500000  0.000000    0.00462963   4 t-inv F
  0.000000  0.000000  0.500000    0.00462963   4 t-inv F
  0.000000  0.166667  0.166667    0.00462963   5 t-inv F
  0.166667  0.000000  0.166667    0.00462963   5 t-inv F
  0.166667 -0.166667  0.000000    0.00462963   5 t-inv F
  0.166667  0.000000 -0.166667    0.00462963   5 t-inv F
  0.000000 -0.166667 -0.166667    0.00462963   5 t-inv F
 -0.166667 -0.166667  0.000000    0.00462963   5 t-inv F
  0.000000 -0.166667  0.166667    0.00462963   5 t-inv F
 -0.166667  0.000000  0.166667    0.00462963   5 t-inv F
 -0.166667  0.166667  0.000000    0.00462963   5 t-inv F
 -0.166667  0.000000 -0.166667    0.00462963   5 t-inv F
  0.000000  0.166667 -0.166667    0.00462963   5 t-inv F
  0.000000  0.333333  0.166667    0.00462963   6 t-inv F
  0.166667  0.000000  0.333333    0.00462963   6 t-inv F
  0.166667 -0.333333  0.000000    0.00462963   6 t-inv F
  0.333333  0.000000 -0.166667    0.00462963   6 t-inv F
  0.000000 -0.166667 -0.333333    0.00462963   6 t-inv F
 -0.333333 -0.166667  0.000000    0.00462963   6 t-inv F
  0.000000 -0.333333  0.166667    0.00462963   6 t-inv F
 -0.166667  0.000000  0.333333    0.00462963   6 t-inv F
 -0.166667  0.333333  0.000000    0.00462963   6 t-inv F
 -0.333333  0.000000 -0.166667    0.00462963   6 t-inv F
  0.000000  0.166667 -0.333333    0.00462963   6 t-inv F
  0.000000 -0.333333 -0.166667    0.00462963   6 t-inv F
  0.166667  0.000000 -0.333333    0.00462963   6 t-inv F
  0.333333 -0.166667  0.000000    0.00462963   6 t-inv F
  0.000000 -0.166667  0.333333    0.00462963   6 t-inv F
 -0.166667 -0.333333  0.000000    0.00462963   6 t-inv F
 -0.333333  0.000000  0.166667    0.00462963   6 t-inv F
 -0.166667  0.000000 -0.333333    0.00462963   6 t-inv F
 -0.333333  0.166667  0.000000    0.00462963   6 t-inv F
  0.000000  0.333333 -0.166667    0.00462963   6 t-inv F
  0.333333  0.000000  0.166667    0.00462963   6 t-inv F
  0.166667  0.333333  0.000000    0.00462963   6 t-inv F
  0.000000  0.166667  0.333333    0.00462963   6 t-inv F
  0.000000  0.500000  0.166667    0.00462963   7 t-inv F
  0.166667  0.000000  0.500000    0.00462963   7 t-inv F
  0.166667 -0.500000  0.000000    0.00462963   7 t-inv F
  0.500000  0.000000 -0.166667    0.00462963   7 t-inv F
  0.000000 -0.166667 -0.500000    0.00462963   7 t-inv F
 -0.500000 -0.166667  0.000000    0.00462963   7 t-inv F
 -0.166667  0.000000  0.500000    0.00462963   7 t-inv F
 -0.166667  0.500000  0.000000    0.00462963   7 t-inv F
  0.000000  0.166667 -0.500000    0.00462963   7 t-inv F
  0.000000 -0.500000 -0.166667    0.00462963   7 t-inv F
 -0.500000  0.000000  0.166667    0.00462963   7 t-inv F
  0.000000  0.333333  0.333333    0.00462963   8 t-inv F
  0.333333  0.000000  0.333333    0.00462963   8 t-inv F
  0.333333 -0.333333  0.000000    0.00462963   8 t-inv F
  0.333333  0.000000 -0.333333    0.00462963   8 t-inv F
  0.000000 -0.333333 -0.333333    0.00462963   8 t-inv F
 -0.333333 -0.333333  0.000000    0.00462963   8 t-inv F
  0.000000 -0.333333  0.333333    0.00462963   8 t-inv F
 -0.333333  0.000000  0.333333    0.00462963   8 t-inv F
 -0.333333  0.333333  0.000000    0.00462963   8 t-inv F
 -0.333333  0.000000 -0.333333    0.00462963   8 t-inv F
  0.000000  0.333333 -0.333333    0.00462963   8 t-inv F
  0.000000  0.500000  0.333333    0.00462963   9 t-inv F
  0.333333  0.000000  0.500000    0.00462963   9 t-inv F
  0.333333 -0.500000  0.000000    0.00462963   9 t-inv F
  0.500000  0.000000 -0.333333    0.00462963   9 t-inv F
  0.000000 -0.333333 -0.500000    0.00462963   9 t-inv F
 -0.500000 -0.333333  0.000000    0.00462963   9 t-inv F
 -0.333333  0.000000  0.500000    0.00462963   9 t-inv F
 -0.333333  0.500000  0.000000    0.00462963   9 t-inv F
  0.000000  0.333333 -0.500000    0.00462963   9 t-inv F
  0.000000 -0.500000 -0.333333    0.00462963   9 t-inv F
 -0.500000  0.000000  0.333333    0.00462963   9 t-inv F
  0.000000  0.500000  0.500000    0.00462963  10 t-inv F
  0.500000  0.000000  0.500000    0.00462963  10 t-inv F
  0.166667 -0.166667 -0.166667    0.00462963  11 t-inv F
 -0.166667 -0.166667  0.166667    0.00462963  11 t-inv F
 -0.166667  0.166667 -0.166667    0.00462963  11 t-inv F
 -0.166667 -0.166667 -0.166667    0.00462963  11 t-inv F
 -0.166667  0.166667  0.166667    0.00462963  11 t-inv F
  0.166667  0.166667 -0.166667    0.00462963  11 t-inv F
  0.166667 -0.166667  0.166667    0.00462963  11 t-inv F
  0.166667  0.333333  0.166667    0.00462963  12 t-inv F
  0.166667  0.166667  0.333333    0.00462963  12 t-inv F
  0.166667 -0.333333 -0.166667    0.00462963  12 t-inv F
  0.333333 -0.166667 -0.166667    0.00462963  12 t-inv F
  0.166667 -0.166667 -0.333333    0.00462963  12 t-inv F
 -0.333333 -0.166667  0.166667    0.00462963  12 t-inv F
 -0.166667 -0.333333  0.166667    0.00462963  12 t-inv F
 -0.166667 -0.166667  0.333333    0.00462963  12 t-inv F
 -0.166667  0.333333 -0.166667    0.00462963  12 t-inv F
 -0.333333  0.166667 -0.166667    0.00462963  12 t-inv F
 -0.166667  0.166667 -0.333333    0.00462963  12 t-inv F
 -0.333333 -0.166667 -0.166667    0.00462963  12 t-inv F
 -0.166667 -0.333333 -0.166667    0.00462963  12 t-inv F
 -0.166667 -0.166667 -0.333333    0.00462963  12 t-inv F
 -0.166667  0.333333  0.166667    0.00462963  12 t-inv F
 -0.333333  0.166667  0.166667    0.00462963  12 t-inv F
 -0.166667  0.166667  0.333333    0.00462963  12 t-inv F
  0.333333  0.166667 -0.166667    0.00462963  12 t-inv F
  0.166667  0.333333 -0.166667    0.00462963  12 t-inv F
  0.166667  0.166667 -0.333333    0.00462963  12 t-inv F
  0.166667 -0.333333  0.166667    0.00462963  12 t-inv F
  0.333333 -0.166667  0.166667    0.00462963  12 t-inv F
  0.166667 -0.166667  0.333333    0.00462963  12 t-inv F
  0.166667  0.500000  0.166667    0.00462963  13 t-inv F
  0.166667  0.166667  0.500000    0.00462963  13 t-inv F
  0.166667 -0.500000 -0.166667    0.00462963  13 t-inv F
  0.500000 -0.166667 -0.166667    0.00462963  13 t-inv F
  0.166667 -0.166667 -0.500000    0.00462963  13 t-inv F
 -0.500000 -0.166667  0.166667    0.00462963  13 t-inv F
 -0.166667 -0.500000  0.166667    0.00462963  13 t-inv F
 -0.166667 -0.166667  0.500000    0.00462963  13 t-inv F
 -0.166667  0.500000 -0.166667    0.00462963  13 t-inv F
 -0.500000  0.166667 -0.166667    0.00462963  13 t-inv F
 -0.166667  0.166667 -0.500000    0.00462963  13 t-inv F
  0.166667  0.333333  0.333333    0.00462963  14 t-inv F
  0.333333  0.166667  0.333333    0.00462963  14 t-inv F
  0.333333 -0.333333 -0.166667    0.00462963  14 t-inv F
  0.333333 -0.166667 -0.333333    0.00462963  14 t-inv F
  0.166667 -0.333333 -0.333333    0.00462963  14 t-inv F
 -0.333333 -0.333333  0.166667    0.00462963  14 t-inv F
 -0.166667 -0.333333  0.333333    0.00462963  14 t-inv F
 -0.333333 -0.166667  0.333333    0.00462963  14 t-inv F
 -0.333333  0.333333 -0.166667    0.00462963  14 t-inv F
 -0.333333  0.166667 -0.333333    0.00462963  14 t-inv F
 -0.166667  0.333333 -0.333333    0.00462963  14 t-inv F
 -0.333333 -0.333333 -0.166667    0.00462963  14 t-inv F
 -0.166667 -0.333333 -0.333333    0.00462963  14 t-inv F
 -0.333333 -0.166667 -0.333333    0.00462963  14 t-inv F
 -0.333333  0.333333  0.166667    0.00462963  14 t-inv F
 -0.333333  0.166667  0.333333    0.00462963  14 t-inv F
 -0.166667  0.333333  0.333333    0.00462963  14 t-inv F
  0.333333  0.333333 -0.166667    0.00462963  14 t-inv F
  0.166667  0.333333 -0.333333    0.00462963  14 t-inv F
  0.333333  0.166667 -0.333333    0.00462963  14 t-inv F
  0.333333 -0.333333  0.166667    0.00462963  14 t-inv F
  0.333333 -0.166667  0.333333    0.00462963  14 t-inv F
  0.166667 -0.333333  0.333333    0.00462963  14 t-inv F
  0.166667  0.500000  0.333333    0.00462963  15 t-inv F
  0.333333  0.166667  0.500000    0.00462963  15 t-inv F
  0.333333 -0.500000 -0.166667    0.00462963  15 t-inv F
  0.500000 -0.166667 -0.333333    0.00462963  15 t-inv F
  0.166667 -0.333333 -0.500000    0.00462963  15 t-inv F
 -0.500000 -0.333333  0.166667    0.00462963  15 t-inv F
 -0.166667 -0.500000  0.333333    0.00462963  15 t-inv F
 -0.333333 -0.166667  0.500000    0.00462963  15 t-inv F
 -0.333333  0.500000 -0.166667    0.00462963  15 t-inv F
 -0.500000  0.166667 -0.333333    0.00462963  15 t-inv F
 -0.166667  0.333333 -0.500000    0.00462963  15 t-inv F
  0.166667 -0.500000 -0.333333    0.00462963  15 t-inv F
  0.333333 -0.166667 -0.500000    0.00462963  15 t-inv F
  0.500000 -0.333333 -0.166667    0.00462963  15 t-inv F
 -0.166667 -0.333333  0.500000    0.00462963  15 t-inv F
 -0.333333 -0.500000  0.166667    0.00462963  15 t-inv F
 -0.500000 -0.166667  0.333333    0.00462963  15 t-inv F
 -0.333333  0.166667 -0.500000    0.00462963  15 t-inv F
 -0.500000  0.333333 -0.166667    0.00462963  15 t-inv F
 -0.166667  0.500000 -0.333333    0.00462963  15 t-inv F
  0.500000  0.166667  0.333333    0.00462963  15 t-inv F
  0.333333  0.500000  0.166667    0.00462963  15 t-inv F
  0.166667  0.333333  0.500000    0.00462963  15 t-inv F
  0.166667  0.500000  0.500000    0.00462963  16 t-inv F
  0.500000  0.166667  0.500000    0.00462963  16 t-inv F
  0.500000 -0.500000 -0.166667    0.00462963  16 t-inv F
  0.500000 -0.166667 -0.500000    0.00462963  16 t-inv F
 -0.166667 -0.500000  0.500000    0.00462963  16 t-inv F
  0.333333 -0.333333 -0.333333    0.00462963  17 t-inv F
 -0.333333 -0.333333  0.333333    0.00462963  17 t-inv F
 -0.333333  0.333333 -0.333333    0.00462963  17 t-inv F
 -0.333333 -0.333333 -0.333333    0.00462963  17 t-inv F
 -0.333333  0.333333  0.333333    0.00462963  17 t-inv F
  0.333333  0.333333 -0.333333    0.00462963  17 t-inv F
  0.333333 -0.333333  0.333333    0.00462963  17 t-inv F
  0.333333  0.500000  0.333333    0.00462963  18 t-inv F
  0.333333  0.333333  0.500000    0.00462963  18 t-inv F
  0.333333 -0.500000 -0.333333    0.00462963  18 t-inv F
  0.500000 -0.333333 -0.333333    0.00462963  18 t-inv F
  0.333333 -0.333333 -0.500000    0.00462963  18 t-inv F
 -0.500000 -0.333333  0.333333    0.00462963  18 t-inv F
 -0.333333 -0.500000  0.333333    0.00462963  18 t-inv F
 -0.333333 -0.333333  0.500000    0.00462963  18 t-inv F
 -0.333333  0.500000 -0.333333    0.00462963  18 t-inv F
 -0.500000  0.333333 -0.333333    0.00462963  18 t-inv F
 -0.333333  0.333333 -0.500000    0.00462963  18 t-inv F
  0.333333  0.500000  0.500000    0.00462963  19 t-inv F
  0.500000  0.333333  0.500000    0.00462963  19 t-inv F
  0.500000 -0.500000 -0.333333    0.00462963  19 t-inv F
  0.500000 -0.333333 -0.500000    0.00462963  19 t-inv F
 -0.333333 -0.500000  0.500000    0.00462963  19 t-inv F


--------------------------------------------------------------------------------------------------------




 Dimension of arrays:
   k-points           NKPTS =     20   k-points in BZ     NKDIM =     20   number of bands    NBANDS=     32
   number of dos      NEDOS =   5000   number of ions     NIONS =      8
   non local maximal  LDIM  =      4   non local SUM 2l+1 LMDIM =      8
   total plane-waves  NPLWV =  64000
   max r-space proj   IRMAX =      1   max aug-charges    IRDMAX=  13104
   dimension x,y,z NGX =    40 NGY =   40 NGZ =   40
   dimension x,y,z NGXF=    80 NGYF=   80 NGZF=   80
   support grid    NGXF=    80 NGYF=   80 NGZF=   80
   ions per type =               8
 NGX,Y,Z   is equivalent  to a cutoff of  12.10, 12.10, 12.10 a.u.
 NGXF,Y,Z  is equivalent  to a cutoff of  24.21, 24.21, 24.21 a.u.


 I would recommend the setting:
   dimension x,y,z NGX =    40 NGY =   40 NGZ =   40
 SYSTEM =  unknown system                          
 POSCAR =  bulk@JVASP-1002_mp-149                  

 Startparameter for this run:
   NWRITE =      3    write-flag & timer
   PREC   = accura    normal or accurate (medium, high low for compatibility)
   ISTART =      0    job   : 0-new  1-cont  2-samecut
   ICHARG =      2    charge: 1-file 2-atom 10-const
   ISPIN  =      2    spin polarized calculation?
   LNONCOLLINEAR =      F non collinear calculations
   LSORBIT =      F    spin-orbit coupling
   INIWAV =      1    electr: 0-lowe 1-rand  2-diag
   LASPH  =      T    aspherical Exc in radial PAW
   METAGGA=      F    non-selfconsistent MetaGGA calc.

 Electronic Relaxation 1
   ENCUT  =  500.0 eV  36.75 Ry    6.06 a.u.  10.02 10.02 10.02*2*pi/ulx,y,z
   ENINI  =  500.0     initial cutoff
   ENAUG  =  322.1 eV  augmentation charge cutoff
   NELM   =    400;   NELMIN=  2; NELMDL= -5     # of ELM steps 
   EDIFF  = 0.1E-05   stopping-criterion for ELM
   LREAL  =      F    real-space projection
   NLSPLINE    = F    spline interpolate recip. space projectors
   LCOMPAT=      F    compatible to vasp.4.4
   GGA_COMPAT  = T    GGA compatible to vasp.4.4-vasp.4.6
   LMAXPAW     = -100 max onsite density
   LMAXMIX     =    2 max onsite mixed and CHGCAR
   VOSKOWN=      0    Vosko Wilk Nusair interpolation
   ROPT   =    0.00000
 Ionic relaxation
   EDIFFG = 0.1E-04   stopping-criterion for IOM
   NSW    =      1    number of steps for IOM
   NBLOCK =      1;   KBLOCK =      1    inner block; outer block 
   IBRION =      8    ionic relax: 0-MD 1-quasi-New 2-CG
   NFREE  =      2    steps in history (QN), initial steepest desc. (CG)
   ISIF   =      3    stress and relaxation
   IWAVPR =     11    prediction:  0-non 1-charg 2-wave 3-comb
   ISYM   =      2    0-nonsym 1-usesym 2-fastsym
   LCORR  =      T    Harris-Foulkes like correction to forces

   POTIM  = 0.0500    time-step for ionic-motion
   TEIN   =    0.0    initial temperature
   TEBEG  =    0.0;   TEEND  =   0.0 temperature during run
   SMASS  =  -3.00    Nose mass-parameter (am)
   estimated Nose-frequenzy (Omega)   =  0.10E-29 period in steps =****** mass=  -0.690E-27a.u.
   SCALEE = 1.0000    scale energy and forces
   NPACO  =    256;   APACO  = 16.0  distance and # of slots for P.C.
   PSTRESS=    0.0 pullay stress

  Mass of Ions in am
   POMASS =  28.09
  Ionic Valenz
   ZVAL   =   4.00
  Atomic Wigner-Seitz radii
   RWIGS  =  -1.00
  virtual crystal weights 
   VCA    =   1.00
   NELECT =      32.0000    total number of electrons
   NUPDOWN=      -1.0000    fix difference up-down

 DOS related values:
   EMIN   =  10.00;   EMAX   =-10.00  energy-range for DOS
   EFERMI =   0.00
   ISMEAR =     0;   SIGMA  =   0.01  broadening in eV -4-tet -1-fermi 0-gaus

 Electronic relaxation 2 (details)
   IALGO  =     38    algorithm
   LDIAG  =      T    sub-space diagonalisation (order eigenvalues)
   LSUBROT=      F    optimize rotation matrix (better conditioning)
   TURBO    =      0    0=normal 1=particle mesh
   IRESTART =      0    0=no restart 2=restart with 2 vectors
   NREBOOT  =      0    no. of reboots
   NMIN     =      0    reboot dimension
   EREF     =   0.00    reference energy to select bands
   IMIX   =      4    mixing-type and parameters
     AMIX     =   0.40;   BMIX     =  1.00
     AMIX_MAG =   1.60;   BMIX_MAG =  1.00
     AMIN     =   0.10
     WC   =   100.;   INIMIX=   1;  MIXPRE=   1;  MAXMIX= -45

 Intra band minimization:
   WEIMIN = 0.0010     energy-eigenvalue tresh-hold
   EBREAK =  0.78E-08  absolut break condition
   DEPER  =   0.30     relativ break condition  

   TIME   =   0.40     timestep for ELM

  volume/ion in A,a.u.               =      20.72       139.86
  Fermi-wavevector in a.u.,A,eV,Ry     =   0.946087  1.787845 12.178314  0.895081
  Thomas-Fermi vector in A             =   2.074051
 
 Write flags
   LWAVE  =      F    write WAVECAR
   LCHARG =      F    write CHGCAR
[...]
      1.373411  4.120232  4.120232    -0.025717    0.061543   -0.001362  
      2.746821  0.000000  2.746821     0.025717   -0.061543    0.001362  
      4.120232  1.373411  4.120232    -0.025717    0.061543   -0.001362  
      2.746821  2.746821  0.000000     0.025717   -0.061543    0.001362  
      4.120232  4.120232  1.373411    -0.025717    0.061543   -0.001362  
 
   4 f  =   13.073028 THz    82.140260 2PiTHz  436.069275 cm-1    54.065719 meV
             X         Y         Z           dx          dy          dz
      0.000000  0.000000  0.000000     0.004313   -0.021539   -0.089554  
      1.373411  1.373411  1.373411     0.069325    0.038147   -0.000692  
      0.000000  2.746821  2.746821    -0.004313    0.016528    0.011029  
      1.373411  4.120232  4.120232    -0.069325    0.040377    0.005703  
      2.746821  0.000000  2.746821     0.002083    0.021539   -0.011029  
      4.120232  1.373411  4.120232     0.031258   -0.038147   -0.005703  
      2.746821  2.746821  0.000000    -0.002083   -0.016528    0.089554  
      4.120232  4.120232  1.373411    -0.031258   -0.040377    0.000692  
 
   5 f  =   13.073028 THz    82.140260 2PiTHz  436.069275 cm-1    54.065719 meV
             X         Y         Z           dx          dy          dz
      0.000000  0.000000  0.000000     0.032011   -0.064056    0.027060  
      1.373411  1.373411  1.373411     0.054354   -0.054706    0.005338  
      0.000000  2.746821  2.746821    -0.032011    0.020533    0.051177  
      1.373411  4.120232  4.120232    -0.054354   -0.023531    0.038185  
      2.746821  0.000000  2.746821     0.000836    0.064056   -0.051177  
      4.120232  1.373411  4.120232    -0.030236    0.054706   -0.038185  
      2.746821  2.746821  0.000000    -0.000836   -0.020533   -0.027060  
      4.120232  4.120232  1.373411     0.030236    0.023531   -0.005338  
 
   6 f  =   13.073028 THz    82.140260 2PiTHz  436.069275 cm-1    54.065719 meV
             X         Y         Z           dx          dy          dz
      0.000000  0.000000  0.000000     0.065724    0.025119   -0.009643  
      1.373411  1.373411  1.373411    -0.021151   -0.057541   -0.002509  
      0.000000  2.746821  2.746821    -0.065724   -0.038457    0.011632  
      1.373411  4.120232  4.120232     0.021151    0.055551    0.015847  
      2.746821  0.000000  2.746821    -0.047368   -0.025119   -0.011632  
      4.120232  1.373411  4.120232     0.042426    0.057541   -0.015847  
      2.746821  2.746821  0.000000     0.047368    0.038457    0.009643  
      4.120232  4.120232  1.373411    -0.042426   -0.055551    0.002509  
 
   7 f  =   13.073028 THz    82.140260 2PiTHz  436.069275 cm-1    54.065719 meV
             X         Y         Z           dx          dy          dz
      0.000000  0.000000  0.000000    -0.025750    0.047773   -0.002839  
      1.373411  1.373411  1.373411     0.016593   -0.020122   -0.015655  
      0.000000  2.746821  2.746821     0.025750    0.001411    0.076708  
      1.373411  4.120232  4.120232    -0.016593   -0.053747   -0.033529  
      2.746821  0.000000  2.746821     0.007875   -0.047773   -0.076708  
      4.120232  1.373411  4.120232     0.062955    0.020122    0.033529  
      2.746821  2.746821  0.000000    -0.007875   -0.001411    0.002839  
      4.120232  4.120232  1.373411    -0.062955    0.053747    0.015655  
 
   8 f  =   13.073028 THz    82.140260 2PiTHz  436.069275 cm-1    54.065719 meV
             X         Y         Z           dx          dy          dz
      0.000000  0.000000  0.000000    -0.052614   -0.035331   -0.002788  
      1.373411  1.373411  1.373411     0.000182   -0.002264    0.092815  
      0.000000  2.746821  2.746821     0.052614   -0.047980    0.010224  
      1.373411  4.120232  4.120232    -0.000182   -0.005172   -0.009504  
      2.746821  0.000000  2.746821    -0.049706    0.035331   -0.010224  
      4.120232  1.373411  4.120232     0.012831    0.002264    0.009504  
      2.746821  2.746821  0.000000     0.049706    0.047980    0.002788  
      4.120232  4.120232  1.373411    -0.012831    0.005172   -0.092815  
 
   9 f  =   13.073028 THz    82.140260 2PiTHz  436.069275 cm-1    54.065719 meV
             X         Y         Z           dx          dy          dz
      0.000000  0.000000  0.000000    -0.010361    0.013151    0.006373  
      1.373411  1.373411  1.373411     0.020460   -0.027067   -0.002557  
      0.000000  2.746821  2.746821     0.010361    0.066511   -0.006066  
      1.373411  4.120232  4.120232    -0.020460    0.026760   -0.077106  
      2.746821  0.000000  2.746821    -0.064188   -0.013151    0.006066  
      4.120232  1.373411  4.120232    -0.032899    0.027067    0.077106  
      2.746821  2.746821  0.000000     0.064188   -0.066511   -0.006373  
      4.120232  4.120232  1.373411     0.032899   -0.026760    0.002557  
 
  10 f  =   11.910004 THz    74.832760 2PiTHz  397.274947 cm-1    49.255834 meV
             X         Y         Z           dx          dy          dz
      0.000000  0.000000  0.000000    -0.060327    0.032597    0.014277  
      1.373411  1.373411  1.373411    -0.062842    0.006830   -0.000090  
      0.000000  2.746821  2.746821    -0.060327   -0.032597   -0.014277  
      1.373411  4.120232  4.120232    -0.062842   -0.006830    0.000090  
      2.746821  0.000000  2.746821     0.060327    0.032597   -0.014277  
      4.120232  1.373411  4.120232     0.062842    0.006830    0.000090  
      2.746821  2.746821  0.000000     0.060327   -0.032597    0.014277  
      4.120232  4.120232  1.373411     0.062842   -0.006830   -0.000090  
 
  11 f  =   11.910004 THz    74.832760 2PiTHz  397.274947 cm-1    49.255834 meV
             X         Y         Z           dx          dy          dz
      0.000000  0.000000  0.000000    -0.010719    0.032577   -0.019610  
      1.373411  1.373411  1.373411     0.031396    0.079719    0.000201  
      0.000000  2.746821  2.746821    -0.010719   -0.032577    0.019610  
      1.373411  4.120232  4.120232     0.031396   -0.079719   -0.000201  
      2.746821  0.000000  2.746821     0.010719    0.032577    0.019610  
      4.120232  1.373411  4.120232    -0.031396    0.079719   -0.000201  
      2.746821  2.746821  0.000000     0.010719   -0.032577   -0.019610  
      4.120232  4.120232  1.373411    -0.031396   -0.079719    0.000201  
 
  12 f  =   11.910004 THz    74.832760 2PiTHz  397.274947 cm-1    49.255834 meV
             X         Y         Z           dx          dy          dz
      0.000000  0.000000  0.000000     0.000121   -0.000198   -0.000287  
      1.373411  1.373411  1.373411    -0.000424   -0.000044    0.094346  
      0.000000  2.746821  2.746821     0.000121    0.000198    0.000287  
      1.373411  4.120232  4.120232    -0.000424    0.000044   -0.094346  
      2.746821  0.000000  2.746821    -0.000121   -0.000198    0.000287  
      4.120232  1.373411  4.120232     0.000424   -0.000044   -0.094346  
      2.746821  2.746821  0.000000    -0.000121    0.000198   -0.000287  
      4.120232  4.120232  1.373411     0.000424    0.000044    0.094346  
 
  13 f  =   11.910004 THz    74.832760 2PiTHz  397.274947 cm-1    49.255834 meV
             X         Y         Z           dx          dy          dz
      0.000000  0.000000  0.000000     0.026319    0.082129   -0.003940  
      1.373411  1.373411  1.373411     0.012536   -0.035930    0.000166  
      0.000000  2.746821  2.746821     0.026319   -0.082129    0.003940  
      1.373411  4.120232  4.120232     0.012536    0.035930   -0.000166  
      2.746821  0.000000  2.746821    -0.026319    0.082129    0.003940  
      4.120232  1.373411  4.120232    -0.012536   -0.035930   -0.000166  
      2.746821  2.746821  0.000000    -0.026319   -0.082129   -0.003940  
      4.120232  4.120232  1.373411    -0.012536    0.035930    0.000166  
 
  14 f  =   11.910004 THz    74.832760 2PiTHz  397.274947 cm-1    49.255834 meV
             X         Y         Z           dx          dy          dz
      0.000000  0.000000  0.000000    -0.038745   -0.005583   -0.080163  
      1.373411  1.373411  1.373411     0.013066   -0.027793   -0.000160  
      0.000000  2.746821  2.746821    -0.038745    0.005583    0.080163  
      1.373411  4.120232  4.120232     0.013066    0.027793    0.000160  
      2.746821  0.000000  2.746821     0.038745   -0.005583    0.080163  
      4.120232  1.373411  4.120232    -0.013066   -0.027793    0.000160  
      2.746821  2.746821  0.000000     0.038745    0.005583   -0.080163  
      4.120232  4.120232  1.373411    -0.013066    0.027793   -0.000160  
 
  15 f  =   11.910004 THz    74.832760 2PiTHz  397.274947 cm-1    49.255834 meV
             X         Y         Z           dx          dy          dz
      0.000000  0.000000  0.000000     0.054346   -0.001143   -0.043261  
      1.373411  1.373411  1.373411    -0.060321    0.020890   -0.000465  
      0.000000  2.746821  2.746821     0.054346    0.001143    0.043261  
      1.373411  4.120232  4.120232    -0.060321   -0.020890    0.000465  
      2.746821  0.000000  2.746821    -0.054346   -0.001143    0.043261  
      4.120232  1.373411  4.120232     0.060321    0.020890    0.000465  
      2.746821  2.746821  0.000000    -0.054346    0.001143   -0.043261  
      4.120232  4.120232  1.373411     0.060321   -0.020890   -0.000465  
 
  16 f  =    4.594446 THz    28.867757 2PiTHz  153.254224 cm-1    19.001109 meV
             X         Y         Z           dx          dy          dz
      0.000000  0.000000  0.000000     0.049928    0.047543   -0.000027  
      1.373411  1.373411  1.373411    -0.000696    0.003904    0.094236  
      0.000000  2.746821  2.746821    -0.049928    0.046716    0.002192  
      1.373411  4.120232  4.120232     0.000696   -0.001738    0.000023  
      2.746821  0.000000  2.746821     0.044286   -0.047543   -0.002192  
      4.120232  1.373411  4.120232    -0.001522   -0.003904   -0.000023  
      2.746821  2.746821  0.000000    -0.044286   -0.046716    0.000027  
      4.120232  4.120232  1.373411     0.001522    0.001738   -0.094236  
 
  17 f  =    4.594446 THz    28.867757 2PiTHz  153.254224 cm-1    19.001109 meV
             X         Y         Z           dx          dy          dz
      0.000000  0.000000  0.000000    -0.008538    0.014502    0.091810  
      1.373411  1.373411  1.373411     0.047596    0.050429   -0.000250  
      0.000000  2.746821  2.746821     0.008538    0.004768    0.006353  
      1.373411  4.120232  4.120232    -0.047596    0.047734    0.019520  
      2.746821  0.000000  2.746821    -0.011232   -0.014502   -0.006353  
      4.120232  1.373411  4.120232     0.037862   -0.050429   -0.019520  
      2.746821  2.746821  0.000000     0.011232   -0.004768   -0.091810  
      4.120232  4.120232  1.373411    -0.037862   -0.047734    0.000250  
 
  18 f  =    4.594446 THz    28.867757 2PiTHz  153.254224 cm-1    19.001109 meV
             X         Y         Z           dx          dy          dz
      0.000000  0.000000  0.000000    -0.003479   -0.019070   -0.005838  
      1.373411  1.373411  1.373411    -0.037650    0.009786   -0.000523  
      0.000000  2.746821  2.746821     0.003479    0.072999   -0.022607  
      1.373411  4.120232  4.120232     0.037650   -0.038231    0.054451  
      2.746821  0.000000  2.746821    -0.051496    0.019070    0.022607  
      4.120232  1.373411  4.120232     0.054419   -0.009786   -0.054451  
      2.746821  2.746821  0.000000     0.051496   -0.072999    0.005838  
      4.120232  4.120232  1.373411    -0.054419    0.038231    0.000523  
 
  19 f  =    4.594446 THz    28.867757 2PiTHz  153.254224 cm-1    19.001109 meV
             X         Y         Z           dx          dy          dz
      0.000000  0.000000  0.000000    -0.048620   -0.002140    0.005492  
      1.373411  1.373411  1.373411     0.027727   -0.077431    0.004436  
      0.000000  2.746821  2.746821     0.048620    0.011658   -0.063761  
      1.373411  4.120232  4.120232    -0.027727    0.019162    0.005083  
      2.746821  0.000000  2.746821     0.047973    0.002140    0.063761  
      4.120232  1.373411  4.120232     0.041526    0.077431   -0.005083  
      2.746821  2.746821  0.000000    -0.047973   -0.011658   -0.005492  
      4.120232  4.120232  1.373411    -0.041526   -0.019162   -0.004436  
 
  20 f  =    4.594446 THz    28.867757 2PiTHz  153.254224 cm-1    19.001109 meV
             X         Y         Z           dx          dy          dz
      0.000000  0.000000  0.000000     0.062927   -0.038296    0.016370  
      1.373411  1.373411  1.373411     0.026502    0.015176   -0.000678  
      0.000000  2.746821  2.746821    -0.062927   -0.023440   -0.051491  
      1.373411  4.120232  4.120232    -0.026502   -0.050297   -0.061058  
      2.746821  0.000000  2.746821    -0.002547    0.038296    0.051491  
      4.120232  1.373411  4.120232     0.041358   -0.015176    0.061058  
      2.746821  2.746821  0.000000     0.002547    0.023440   -0.016370  
      4.120232  4.120232  1.373411    -0.041358    0.050297    0.000678  
 
  21 f  =    4.594446 THz    28.867757 2PiTHz  153.254224 cm-1    19.001109 meV
             X         Y         Z           dx          dy          dz
      0.000000  0.000000  0.000000     0.000154   -0.067795    0.011843  
      1.373411  1.373411  1.373411    -0.061213    0.004644    0.000771  
      0.000000  2.746821  2.746821    -0.000154    0.026120    0.040354  
      1.373411  4.120232  4.120232     0.061213    0.047553   -0.042446  
      2.746821  0.000000  2.746821     0.043063    0.067795   -0.040354  
      4.120232  1.373411  4.120232     0.032701   -0.004644    0.042446  
      2.746821  2.746821  0.000000    -0.043063   -0.026120   -0.011843  
      4.120232  4.120232  1.373411    -0.032701   -0.047553   -0.000771  
 
  22 f  =    0.000000 THz     0.000002 2PiTHz    0.000012 cm-1     0.000002 meV
             X         Y         Z           dx          dy          dz
      0.000000  0.000000  0.000000    -0.062129    0.024306   -0.000026  
      1.373411  1.373411  1.373411    -0.062129    0.024306   -0.000026  
      0.000000  2.746821  2.746821    -0.062129    0.024306   -0.000026  
      1.373411  4.120232  4.120232    -0.062129    0.024306   -0.000026  
      2.746821  0.000000  2.746821    -0.062129    0.024306   -0.000026  
      4.120232  1.373411  4.120232    -0.062129    0.024306   -0.000026  
      2.746821  2.746821  0.000000    -0.062129    0.024306   -0.000026  
      4.120232  4.120232  1.373411    -0.062129    0.024306   -0.000026  
 
  23 f/i=    0.000000 THz     0.000001 2PiTHz    0.000005 cm-1     0.000001 meV
             X         Y         Z           dx          dy          dz
      0.000000  0.000000  0.000000    -0.009193   -0.023433    0.061783  
      1.373411  1.373411  1.373411    -0.009193   -0.023433    0.061783  
      0.000000  2.746821  2.746821    -0.009193   -0.023433    0.061783  
      1.373411  4.120232  4.120232    -0.009193   -0.023433    0.061783  
      2.746821  0.000000  2.746821    -0.009193   -0.023433    0.061783  
      4.120232  1.373411  4.120232    -0.009193   -0.023433    0.061783  
      2.746821  2.746821  0.000000    -0.009193   -0.023433    0.061783  
      4.120232  4.120232  1.373411    -0.009193   -0.023433    0.061783  
 
  24 f/i=    0.000000 THz     0.000001 2PiTHz    0.000008 cm-1     0.000001 meV
             X         Y         Z           dx          dy          dz
      0.000000  0.000000  0.000000    -0.022500   -0.057540   -0.025172  
      1.373411  1.373411  1.373411    -0.022500   -0.057540   -0.025172  
      0.000000  2.746821  2.746821    -0.022500   -0.057540   -0.025172  
      1.373411  4.120232  4.120232    -0.022500   -0.057540   -0.025172  
      2.746821  0.000000  2.746821    -0.022500   -0.057540   -0.025172  
      4.120232  1.373411  4.120232    -0.022500   -0.057540   -0.025172  
      2.746821  2.746821  0.000000    -0.022500   -0.057540   -0.025172  
      4.120232  4.120232  1.373411    -0.022500   -0.057540   -0.025172  
 


--------------------------------------------------------------------------------------------------------




 MACROSCOPIC STATIC DIELECTRIC TENSOR IONIC CONTRIBUTION
 ------------------------------------------------------
           0.000000     0.000000     0.000000
           0.000000     0.000000    -0.000000
          -0.000000    -0.000000    -0.000000
 ------------------------------------------------------


 ELASTIC MODULI IONIC CONTR (kBar)
 Direction    XX          YY          ZZ          XY          YZ          ZX
 --------------------------------------------------------------------------------
 XX          -0.0000     -0.0000     -0.0000      0.0000      0.0000      0.0000
 YY          -0.0000     -0.0000     -0.0000      0.0000      0.0000      0.0000
 ZZ          -0.0000     -0.0000     -0.0000      0.0000      0.0000      0.0000
 XY           0.0000      0.0000      0.0000   -207.8132      0.0000      0.0000
 YZ           0.0000      0.0000      0.0000     -0.0000   -207.8132      0.0000
 ZX           0.0000      0.0000      0.0000      0.0000      0.0000   -207.8132
 --------------------------------------------------------------------------------


 PIEZOELECTRIC TENSOR IONIC CONTR  for field in x, y, z        (C/m^2)
          XX          YY          ZZ          XY          YZ          ZX
  --------------------------------------------------------------------------------
  x    -0.00000    -0.00000    -0.00000    -0.00000     0.00000     0.00000
  y    -0.00000    -0.00000    -0.00000     0.00000    -0.00000     0.00000
  z    -0.00000    -0.00000    -0.00000     0.00000     0.00000     0.00000


--------------------------------------------------------------------------------------------------------


     LOOP+:  cpu time  627.7941: real time  635.6287
    4ORBIT:  cpu time    0.0000: real time    0.0000
 


 total charge     
 
# of ion     s       p       d       tot
----------------------------------------
  1        0.750   0.923   0.000   1.673
  2        0.750   0.923   0.000   1.673
  3        0.750   0.923   0.000   1.673
  4        0.750   0.923   0.000   1.673
  5        0.750   0.923   0.000   1.673
  6        0.750   0.923   0.000   1.673
  7        0.750   0.923   0.000   1.673
  8        0.750   0.923   0.000   1.673
------------------------------------------------
tot        6.003   7.383   0.000  13.386
 


 magnetization (x)
 
# of ion     s       p       d       tot
----------------------------------------
  1        0.000  -0.000   0.000  -0.000
  2        0.000  -0.000   0.000  -0.000
  3        0.000  -0.000   0.000  -0.000
  4        0.000  -0.000   0.000  -0.000
  5        0.000  -0.000   0.000  -0.000
  6        0.000  -0.000   0.000  -0.000
  7        0.000  -0.000   0.000  -0.000
  8        0.000  -0.000   0.000  -0.000
------------------------------------------------
tot        0.000  -0.000   0.000  -0.000
 

 total amount of memory used by VASP on root node    46299. kBytes
========================================================================

   base      :      30000. kBytes
   nonl-proj :       5992. kBytes
   fftplans  :        914. kBytes
   grid      :       6580. kBytes
   one-center:         49. kBytes
   wavefun   :       2764. kBytes
 
  
  
 General timing and accounting informations for this job:
 ========================================================
  
                  Total CPU time used (sec):      631.932
                            User time (sec):      621.488
                          System time (sec):       10.444
                         Elapsed time (sec):      640.872
  
                   Maximum memory used (kb):      234192.
                   Average memory used (kb):           0.
  
                          Minor page faults:      1879103
                          Major page faults:           37
                 Voluntary context switches:         2619
